ITEM: TIMESTEP
0
ITEM: NUMBER OF ATOMS
0
ITEM: BOX BOUNDS ff fs pp
-4.0000000000000002e-01 4.0000000000000002e-01
-4.9000000000000004e+00 4.9009800000000006e+00
-1.0000000000000001e-01 1.0000000000000001e-01
ITEM: ATOMS x y z radius
