ITEM: TIMESTEP
52500
ITEM: NUMBER OF ATOMS
4
ITEM: BOX BOUNDS ff fm pp
0.0000000000000000e+00 3.0000000000000000e+00
0.0000000000000000e+00 5.0000000000000000e+00
-5.0000000000000000e-01 5.0000000000000000e-01
ITEM: ATOMS x y z radius
2.02916 0.988807 0 1
1.01698 2.70679 0 1
2.51064 2.53471 0 0.5
2.23523 4.16762 0 0.5
