ITEM: TIMESTEP
64000
ITEM: NUMBER OF ATOMS
5
ITEM: BOX BOUNDS ff fm pp
0.0000000000000000e+00 3.0000000000000000e+00
0.0000000000000000e+00 5.0000000000000000e+00
-5.0000000000000000e-01 5.0000000000000000e-01
ITEM: ATOMS x y z radius
2.201 0.815569 0 1
0.776275 2.20029 0 1
2.3048 2.6789 0 0.5
1.10148 4.16217 0 1
2.57696 4.51322 0 0.5
