ITEM: TIMESTEP
800000
ITEM: NUMBER OF ATOMS
605
ITEM: BOX BOUNDS ff fm pp
0.0000000000000000e+00 1.0000000000000000e+01
0.0000000000000000e+00 5.3000000000000000e+01
-5.0000000000000000e-01 5.0000000000000000e-01
ITEM: ATOMS x y z radius
0.466967 0.436971 0 0.5
1.46431 0.44748 0 0.5
2.48089 0.222769 0 0.25
3.19292 0.456501 0 0.5
5.01719 0.437528 0 0.5
6.01576 0.467663 0 0.5
7.0637 0.439023 0 0.5
8.06102 0.441321 0 0.5
9.05886 0.437788 0 0.5
2.32257 0.954474 0 0.5
4.1092 0.855538 0 0.5
5.5956 1.08911 0 0.25
0.455369 1.43278 0 0.5
1.45399 1.44756 0 0.5
3.18561 1.45403 0 0.5
4.92762 1.42984 0 0.5
6.56505 1.30108 0 0.5
7.56312 1.30691 0 0.5
8.56143 1.30405 0 0.5
9.55842 1.29984 0 0.5
2.31686 1.95232 0 0.5
4.0631 1.92728 0 0.5
5.79204 1.92845 0 0.5
7.05911 2.16903 0 0.5
8.06614 2.16978 0 0.5
9.06569 2.16969 0 0.5
9.79747 2.00648 0 0.25
0.452003 2.42863 0 0.5
0.909135 3.01678 0 0.25
1.45068 2.45067 0 0.5
2.31568 2.95099 0 0.5
3.18099 2.45256 0 0.5
4.06033 2.92387 0 0.5
4.92749 2.42843 0 0.5
5.64009 2.65789 0 0.25
6.35639 2.87832 0 0.5
9.77038 2.50154 0 0.25
1.4682 3.50983 0 0.5
3.26212 3.51923 0 0.5
4.76726 3.15899 0 0.25
5.47708 3.38511 0 0.5
6.90697 3.38696 0 0.25
7.56359 3.03128 0 0.5
8.56241 3.03607 0 0.5
9.54477 3.21275 0 0.5
0.476019 3.62575 0 0.5
2.36243 3.94795 0 0.5
4.61257 3.89046 0 0.5
6.343 3.87656 0 0.5
7.33283 4.00329 0 0.5
8.32787 4.07743 0 0.5
8.95603 3.673 0 0.25
9.50535 4.20915 0 0.5
0.478146 4.62361 0 0.5
1.48123 4.50998 0 0.5
2.21202 4.67741 0 0.25
3.05223 4.23709 0 0.25
3.77468 4.43274 0 0.5
5.4823 4.38178 0 0.5
1.04469 5.11966 0 0.25
1.99432 5.38985 0 0.5
2.90053 4.9698 0 0.5
4.64698 4.92771 0 0.5
5.68011 5.35817 0 0.5
6.55446 4.85013 0 0.5
7.54411 4.97996 0 0.5
8.53954 5.05258 0 0.5
9.526 5.20615 0 0.5
0.470365 5.62139 0 0.5
2.80988 5.96632 0 0.5
3.7853 5.43103 0 0.5
4.7936 5.91687 0 0.5
6.55153 5.84649 0 0.5
7.54218 5.9797 0 0.5
9.27528 5.91108 0 0.25
9.77967 5.90937 0 0.25
0.459849 6.62036 0 0.5
1.32844 6.13005 0 0.5
2.07731 6.13366 0 0.25
3.69757 6.4241 0 0.5
4.43372 6.57656 0 0.25
5.69288 6.35471 0 0.5
8.00231 6.57388 0 0.25
8.53904 6.05027 0 0.5
9.53069 6.61435 0 0.5
1.36097 7.12557 0 0.5
2.31952 6.84175 0 0.5
3.06935 6.83375 0 0.25
4.99825 7.07052 0 0.5
6.84658 6.79834 0 0.5
8.62984 7.04371 0 0.5
0.471285 7.61815 0 0.5
2.98357 7.58745 0 0.5
3.96107 7.38523 0 0.5
4.62961 7.72024 0 0.25
5.98798 7.30743 0 0.5
6.70274 7.5339 0 0.25
7.66554 7.36622 0 0.5
8.32099 7.72307 0 0.25
8.81437 7.77464 0 0.25
9.54325 7.61247 0 0.5
0.61073 8.35286 0 0.25
1.18266 7.84985 0 0.25
2.02603 7.87041 0 0.5
4.2231 8.34742 0 0.5
5.30767 8.0364 0 0.5
6.01103 8.29375 0 0.25
6.37278 7.94937 0 0.25
7.08502 8.17854 0 0.5
8.05394 8.41944 0 0.5
9.78292 8.32234 0 0.25
1.32424 8.58206 0 0.5
2.28978 8.83379 0 0.5
3.24645 8.55107 0 0.5
4.99193 8.98234 0 0.5
5.69582 8.68197 0 0.25
6.4188 8.92215 0 0.5
9.05222 8.48333 0 0.5
0.462974 9.08601 0 0.5
1.33197 9.57943 0 0.5
2.07917 9.55039 0 0.25
2.98406 9.55202 0 0.5
3.95207 9.30723 0 0.5
7.38808 9.16171 0 0.5
8.49706 9.31292 0 0.5
9.51489 9.36865 0 0.5
0.469617 10.0834 0 0.5
4.72217 9.94259 0 0.5
5.73423 9.64853 0 0.5
6.7036 9.8885 0 0.5
7.45503 9.90654 0 0.25
7.94716 9.82223 0 0.25
8.39035 10.0529 0 0.25
8.97493 9.8875 0 0.25
1.33813 10.5773 0 0.5
2.28738 10.2675 0 0.5
3.03448 10.2998 0 0.25
3.78226 10.2913 0 0.5
4.44543 10.6364 0 0.25
5.46564 10.6092 0 0.5
6.17685 10.8419 0 0.25
6.63066 10.6329 0 0.25
7.38365 10.651 0 0.5
8.10762 10.4623 0 0.25
8.79072 10.3499 0 0.25
9.5385 10.3792 0 0.5
0.476157 11.0807 0 0.5
1.1889 11.3112 0 0.25
2.08227 11.2433 0 0.5
3.06627 11.0491 0 0.5
4.08172 10.9796 0 0.25
4.75854 11.3137 0 0.5
6.69946 11.3777 0 0.5
8.55817 11.0601 0 0.5
9.51291 11.3774 0 0.5
1.44744 12.0138 0 0.5
2.19522 11.9819 0 0.25
3.83441 11.6892 0 0.5
5.72115 11.5741 0 0.5
7.09403 12.0117 0 0.25
7.71445 11.5937 0 0.5
0.451781 12.0772 0 0.5
2.93138 12.1131 0 0.5
4.6485 12.3044 0 0.5
5.41481 12.2599 0 0.25
6.37874 12.3242 0 0.5
7.90962 12.3164 0 0.25
8.61024 12.0566 0 0.5
9.55528 12.375 0 0.5
0.460131 13.0738 0 0.5
1.10795 12.6838 0 0.25
2.14482 12.7274 0 0.5
2.89388 12.8637 0 0.25
3.73484 12.7069 0 0.5
5.15634 12.8541 0 0.25
5.83765 13.1626 0 0.5
6.60479 13.0422 0 0.25
7.28905 12.7325 0 0.5
8.25115 12.9971 0 0.5
8.986 12.8598 0 0.25
1.40447 13.3956 0 0.5
2.36168 13.7006 0 0.5
3.35867 13.632 0 0.5
4.55369 13.2979 0 0.5
7.12139 13.7144 0 0.5
8.78586 13.5241 0 0.25
9.52972 13.3736 0 0.5
0.652036 14.0525 0 0.5
1.59817 14.3739 0 0.5
4.1811 14.223 0 0.5
5.19836 14.0625 0 0.5
6.19883 14.0928 0 0.5
8.08375 13.9817 0 0.5
9.04697 14.2476 0 0.5
9.77686 14.0808 0 0.25
0.473915 15.0337 0 0.5
1.2234 15.0225 0 0.25
2.9178 14.5282 0 0.5
5.71662 14.965 0 0.5
6.60045 14.7265 0 0.25
7.35113 14.6848 0 0.5
8.33594 14.9481 0 0.5
9.75422 14.5797 0 0.25
1.06375 15.4954 0 0.25
2.17061 15.1906 0 0.5
2.91419 15.276 0 0.25
3.72756 15.1115 0 0.5
4.72586 15.0894 0 0.5
6.04355 15.6397 0 0.25
6.42989 15.1993 0 0.25
6.92171 15.2985 0 0.25
7.62086 15.6448 0 0.5
9.33791 15.2032 0 0.5
0.462036 16.0308 0 0.5
1.60498 16.0128 0 0.5
2.60121 16.0903 0 0.5
3.21947 15.6688 0 0.25
3.67996 15.8566 0 0.25
4.37154 16.1404 0 0.5
5.3347 15.8859 0 0.5
5.9859 16.2504 0 0.25
6.69421 16.0119 0 0.5
8.5802 15.916 0 0.5
9.54174 16.181 0 0.5
0.247403 16.7498 0 0.25
1.04569 16.8389 0 0.5
2.78537 16.8653 0 0.25
3.474 16.5748 0 0.5
7.11249 16.6501 0 0.25
7.8628 16.616 0 0.5
1.50179 17.4397 0 0.25
2.03949 16.9147 0 0.5
3.10837 17.2465 0 0.25
2.62665 17.3786 0 0.25
3.60336 17.3094 0 0.25
4.33349 17.1387 0 0.5
5.30068 16.8848 0 0.5
6.29965 16.9282 0 0.5
8.82949 16.882 0 0.5
9.76674 16.8945 0 0.25
0.472799 17.6537 0 0.5
2.09802 17.9106 0 0.5
2.87376 17.8115 0 0.25
3.58163 18.0548 0 0.5
4.31134 17.8876 0 0.25
5.05967 17.8545 0 0.5
6.05779 17.8949 0 0.5
7.12751 17.4871 0 0.5
8.12154 17.5867 0 0.5
9.52126 17.6012 0 0.5
0.190156 18.3444 0 0.25
1.19704 18.3424 0 0.5
2.75671 18.2969 0 0.25
3.09592 18.6637 0 0.25
4.07439 18.617 0 0.25
4.4975 18.3513 0 0.25
7.5354 18.4 0 0.5
8.53361 18.4972 0 0.5
9.52788 18.5984 0 0.5
0.47611 19.0339 0 0.5
2.2965 18.8886 0 0.5
3.57623 18.8008 0 0.25
4.3525 19.03 0 0.25
3.88197 19.1938 0 0.25
4.77659 18.766 0 0.25
5.52548 18.7396 0 0.5
6.59385 18.7356 0 0.5
1.41795 19.3643 0 0.5
3.14705 19.411 0 0.5
4.91157 19.5269 0 0.5
6.00513 19.6212 0 0.5
7.01053 19.6413 0 0.5
7.95161 19.3092 0 0.5
8.94473 19.4079 0 0.5
9.7757 19.3041 0 0.25
9.77026 19.8021 0 0.25
0.615549 20.0213 0 0.5
1.35983 20.1118 0 0.25
2.26822 19.8868 0 0.5
3.12038 20.4077 0 0.5
3.99881 19.9321 0 0.5
5.39581 20.0962 0 0.25
7.86588 20.3059 0 0.5
8.5743 20.0599 0 0.25
9.26409 20.3531 0 0.5
0.237204 20.6673 0 0.25
0.932068 20.9673 0 0.5
1.56576 20.5667 0 0.25
2.24418 20.8851 0 0.5
3.82478 20.6603 0 0.25
4.79139 20.5382 0 0.5
5.92168 20.6272 0 0.5
6.91974 20.6337 0 0.5
8.56227 21.0636 0 0.5
0.210371 21.1652 0 0.25
1.63506 21.6751 0 0.5
2.38196 21.6218 0 0.25
3.09835 21.4049 0 0.5
4.16274 21.3276 0 0.5
5.29113 21.4022 0 0.5
6.41672 21.1878 0 0.25
6.85956 21.4257 0 0.25
7.60702 21.3562 0 0.5
9.53246 21.3135 0 0.5
0.485446 21.8611 0 0.5
1.13592 22.2315 0 0.25
2.24859 22.1046 0 0.25
3.6746 22.2191 0 0.5
4.67232 22.186 0 0.5
5.46034 22.1558 0 0.25
6.16193 21.8906 0 0.5
7.10508 22.2201 0 0.5
8.26924 22.1023 0 0.5
8.93845 21.7681 0 0.25
0.69752 22.8372 0 0.5
1.74637 22.666 0 0.5
2.76911 22.6433 0 0.5
6.34023 22.8724 0 0.5
8.83051 22.5991 0 0.25
9.52223 22.3118 0 0.5
0.200766 23.3958 0 0.25
2.06651 23.341 0 0.25
2.56468 23.3646 0 0.25
3.46253 22.9366 0 0.25
4.20072 23.0677 0 0.5
5.34336 22.9242 0 0.5
7.28114 23.2035 0 0.5
8.27363 23.0999 0 0.5
9.50542 23.3103 0 0.5
0.492479 24.0843 0 0.5
1.35789 23.5863 0 0.5
2.23148 24.07 0 0.5
3.255 23.6554 0 0.5
4.87351 23.8049 0 0.5
5.88726 23.7616 0 0.5
6.62351 23.5704 0 0.25
7.76306 24.0777 0 0.5
8.75658 23.9721 0 0.5
9.75377 24.0167 0 0.25
1.37554 24.5869 0 0.5
3.05531 24.6339 0 0.5
4.00718 24.3121 0 0.5
6.78853 24.3051 0 0.5
9.28885 24.4956 0 0.25
9.78662 24.5147 0 0.25
0.490892 25.0817 0 0.5
2.32776 24.8116 0 0.25
1.94168 25.1275 0 0.25
3.80164 25.2961 0 0.5
4.87752 24.8031 0 0.5
5.87493 24.7593 0 0.5
7.54863 25.053 0 0.5
8.54282 24.9483 0 0.5
9.50705 25.21 0 0.5
1.35242 25.5884 0 0.5
2.58331 25.5143 0 0.5
4.67469 25.7795 0 0.5
5.67244 25.7376 0 0.5
6.62091 25.4231 0 0.5
8.13513 25.861 0 0.5
0.482524 26.0794 0 0.5
1.85719 26.4507 0 0.5
2.58265 26.2622 0 0.25
3.33144 26.1773 0 0.5
7.20628 26.2321 0 0.5
9.08182 26.1787 0 0.5
9.77951 25.9049 0 0.25
9.79686 26.4009 0 0.25
0.4762 27.0772 0 0.5
2.75179 26.991 0 0.5
4.20605 26.6599 0 0.5
5.20872 26.6225 0 0.5
6.25763 26.5468 0 0.5
7.99098 26.8491 0 0.5
8.7406 26.8516 0 0.25
9.50665 27.0886 0 0.5
1.43537 27.3571 0 0.5
3.62653 27.4717 0 0.5
4.73909 27.5049 0 0.5
5.79273 27.4314 0 0.5
7.00326 27.2104 0 0.5
7.81394 27.5983 0 0.25
8.64933 27.5979 0 0.5
0.463953 28.0754 0 0.5
2.28944 27.8752 0 0.5
4.12213 28.037 0 0.25
4.5779 28.2414 0 0.25
6.32193 28.277 0 0.5
7.31281 28.1593 0 0.5
8.04993 28.0422 0 0.25
9.79292 27.7796 0 0.25
1.41932 28.3647 0 0.5
2.30948 28.8748 0 0.5
3.16338 28.3564 0 0.5
4.0625 28.7875 0 0.5
5.3238 28.3137 0 0.5
8.3777 28.7141 0 0.5
9.30718 28.348 0 0.5
0.479786 29.0743 0 0.5
1.43609 29.3631 0 0.5
3.2375 29.3533 0 0.5
4.95141 29.2398 0 0.5
5.94701 29.202 0 0.5
6.65613 28.9519 0 0.25
7.39876 29.1537 0 0.5
9.16315 29.3357 0 0.5
9.78695 28.9226 0 0.25
0.533867 30.072 0 0.5
2.14056 29.6164 0 0.25
4.12781 29.8059 0 0.5
4.96996 29.9886 0 0.25
6.69416 29.8603 0 0.5
8.23403 29.7002 0 0.5
1.04816 30.6199 0 0.25
1.73232 30.3166 0 0.5
2.72547 30.2106 0 0.5
3.67832 30.6974 0 0.5
5.69755 30.17 0 0.5
7.52997 30.4054 0 0.5
8.56563 30.6431 0 0.5
9.51009 30.2708 0 0.5
0.449152 31.0689 0 0.5
1.42596 31.2667 0 0.5
2.11063 30.9629 0 0.25
2.8187 31.2052 0 0.5
4.87025 30.7313 0 0.5
5.60503 30.927 0 0.25
6.44918 30.8281 0 0.5
7.16465 31.0592 0 0.25
9.27744 30.9834 0 0.25
8.90204 31.312 0 0.25
9.78555 30.9662 0 0.25
3.50459 31.5061 0 0.25
4.25346 31.5161 0 0.5
5.13702 31.4301 0 0.25
5.85718 31.6379 0 0.5
6.85528 31.741 0 0.5
7.85625 31.3488 0 0.5
9.55588 31.6779 0 0.5
0.488567 32.0668 0 0.5
2.15215 31.9476 0 0.5
3.12918 32.1542 0 0.5
4.06602 32.5011 0 0.5
5.00786 32.1687 0 0.5
7.66862 32.3305 0 0.5
8.61084 32.0022 0 0.5
0.497207 33.0664 0 0.5
1.35898 32.5577 0 0.5
2.30616 32.932 0 0.5
5.76318 32.8219 0 0.5
6.75787 32.7358 0 0.5
8.56324 32.9981 0 0.5
9.51432 32.676 0 0.5
1.51674 33.5487 0 0.5
3.2968 33.1404 0 0.5
4.82085 33.156 0 0.5
6.60345 33.7229 0 0.5
7.565 33.3248 0 0.5
9.31566 33.6591 0 0.5
0.246753 33.7723 0 0.25
0.795831 33.7567 0 0.25
1.35481 34.2814 0 0.25
2.54987 33.9007 0 0.5
3.65456 34.0737 0 0.5
4.65568 34.1429 0 0.5
5.60507 33.8115 0 0.5
7.41004 34.3144 0 0.5
8.35022 33.9738 0 0.5
9.76747 34.2571 0 0.25
0.529373 34.4653 0 0.5
1.22696 34.7657 0 0.25
1.97448 34.7171 0 0.5
2.97392 34.805 0 0.5
3.72383 34.82 0 0.25
5.31398 34.5088 0 0.25
6.19455 34.6339 0 0.5
6.90858 34.8744 0 0.25
9.00066 34.3537 0 0.25
0.224556 35.1492 0 0.25
0.911648 35.4455 0 0.5
1.66149 35.4163 0 0.25
4.41416 35.1113 0 0.5
5.41299 35.2588 0 0.5
7.526 35.3089 0 0.5
8.4714 34.9674 0 0.5
9.47549 34.9477 0 0.5
0.227818 35.7498 0 0.25
2.39714 35.623 0 0.5
3.54799 35.6227 0 0.5
4.78522 36.0389 0 0.5
6.55851 35.5698 0 0.5
8.18352 35.7854 0 0.25
8.98119 35.8246 0 0.5
0.583812 36.4088 0 0.5
1.57671 36.195 0 0.5
2.18183 36.6391 0 0.25
2.93004 36.4709 0 0.5
3.92752 36.5511 0 0.5
5.77558 36.1974 0 0.5
6.51608 36.3245 0 0.25
7.26897 36.2756 0 0.5
8.28888 36.5648 0 0.5
9.50582 36.6733 0 0.5
1.45693 37.1867 0 0.5
5.04041 37.0048 0 0.5
5.79931 36.9491 0 0.25
6.54604 37.0736 0 0.5
7.53223 37.2434 0 0.5
9.24624 37.3762 0 0.25
0.486997 37.4275 0 0.5
1.86528 37.8148 0 0.25
1.3796 37.9433 0 0.25
2.4466 37.3451 0 0.5
3.44664 37.4306 0 0.5
4.38934 37.7749 0 0.5
5.73583 37.7279 0 0.5
8.50032 37.5424 0 0.5
9.74675 37.3864 0 0.25
0.233841 38.1356 0 0.25
0.966286 38.231 0 0.25
2.71229 38.1485 0 0.25
3.32137 38.1785 0 0.25
3.75361 38.4465 0 0.25
5.03669 38.2633 0 0.25
6.67902 38.0738 0 0.5
7.66017 38.2533 0 0.5
9.47638 38.0959 0 0.5
0.51071 38.8293 0 0.5
2.00271 38.5675 0 0.5
3.03466 38.8696 0 0.5
3.76223 39.0775 0 0.25
4.48095 38.7813 0 0.5
5.61621 38.7422 0 0.5
6.80839 39.0701 0 0.5
8.60208 38.5859 0 0.5
9.52571 39.097 0 0.5
1.38747 39.3695 0 0.5
2.52622 39.5362 0 0.25
3.48047 39.8027 0 0.5
4.19675 39.4893 0 0.25
5.05259 39.7155 0 0.5
6.05444 39.752 0 0.5
7.79695 39.2555 0 0.5
0.4997 39.8446 0 0.5
2.06614 39.7769 0 0.25
7.10977 39.8291 0 0.25
7.75564 40.3609 0 0.5
8.68972 39.8102 0 0.5
9.42826 39.9916 0 0.25
0.270995 40.9017 0 0.25
1.37502 40.5086 0 0.5
2.55272 40.5203 0 0.5
3.347 40.6238 0 0.25
4.37787 40.6947 0 0.5
5.52805 40.6063 0 0.5
6.73768 40.542 0 0.5
9.54749 40.7468 0 0.5
0.881572 41.3937 0 0.5
1.83702 41.4494 0 0.25
3.1566 41.2223 0 0.25
4.74229 41.3901 0 0.25
6.07137 41.7128 0 0.25
7.42004 41.3154 0 0.5
8.5304 41.0259 0 0.5
2.73877 41.9176 0 0.5
3.93483 41.7146 0 0.5
5.12308 42.6007 0 0.25
9.42719 41.7749 0 0.5
1.78975 42.2889 0 0.5
3.45725 42.8821 0 0.25
5.94757 42.933 0 0.25
6.48351 42.6674 0 0.25
7.93943 42.0841 0 0.25
8.52208 42.556 0 0.5
0.646675 42.6232 0 0.5
4.23955 42.7485 0 0.5
6.57769 43.336 0 0.25
7.34521 42.8126 0 0.5
1.85708 43.4867 0 0.5
7.01619 43.6342 0 0.25
8.04726 43.9301 0 0.25
9.44201 43.5918 0 0.5
0.481517 44.5204 0 0.5
1.5445 44.7248 0 0.25
2.88018 43.7382 0 0.5
4.31398 44.3082 0 0.5
5.95463 44.256 0 0.25
3.43723 44.8086 0 0.5
7.18854 44.862 0 0.5
0.322963 45.3091 0 0.25
1.20807 45.2518 0 0.25
2.53605 45.2616 0 0.5
1.35753 46.7101 0 0.25
9.38177 46.1589 0 0.5
4.27376 47.23 0 0.25
2.49016 46.9626 0 0.5
8.07518 47.4477 0 0.25
2.36296 48.3256 0 0.25
3.5395 48.7283 0 0.5
9.30099 48.8993 0 0.5
2.9911 50.0167 0 0.25
3.2581 50.4485 0 0.25
0.924263 51.3563 0 0.5
4.43742 51.6585 0 0.25
5.45659 51.9708 0 0.25
