ITEM: TIMESTEP
180000
ITEM: NUMBER OF ATOMS
12
ITEM: BOX BOUNDS ff fm pp
0.0000000000000000e+00 4.0000000000000000e+00
0.0000000000000000e+00 9.0000000000000000e+00
-5.0000000000000000e-01 5.0000000000000000e-01
ITEM: ATOMS x y z radius
0.494267 0.496887 0 0.5
1.49363 0.472904 0 0.5
3.0119 0.975755 0 1
1.5955 1.46615 0 0.5
0.98185 2.83305 0 1
3.51779 2.38671 0 0.5
2.78605 3.69486 0 1
0.992121 4.83204 0 1
2.4559 5.15733 0 0.5
3.50214 5.01267 0 0.5
3.00568 6.55216 0 1
1.02515 6.83116 0 1
