ITEM: TIMESTEP
53500
ITEM: NUMBER OF ATOMS
4
ITEM: BOX BOUNDS ff fm pp
0.0000000000000000e+00 3.0000000000000000e+00
0.0000000000000000e+00 5.0000000000000000e+00
-5.0000000000000000e-01 5.0000000000000000e-01
ITEM: ATOMS x y z radius
2.03419 0.969788 0 1
0.96666 2.6729 0 1
2.49999 2.56845 0 0.5
2.10544 4.13482 0 0.5
