ITEM: TIMESTEP
46000
ITEM: NUMBER OF ATOMS
4
ITEM: BOX BOUNDS ff fm pp
0.0000000000000000e+00 3.0000000000000000e+00
0.0000000000000000e+00 5.0000000000000000e+00
-5.0000000000000000e-01 5.0000000000000000e-01
ITEM: ATOMS x y z radius
1.44874 0.991905 0 1
2.32414 2.27748 0 0.5
1.00041 2.99237 0 1
2.02877 4.30625 0 0.5
