ITEM: TIMESTEP
0
ITEM: NUMBER OF ATOMS
0
ITEM: BOX BOUNDS ff fm pp
0.0000000000000000e+00 1.0000000000000000e+01
0.0000000000000000e+00 1.1000000000000000e+02
-5.0000000000000000e-01 5.0000000000000000e-01
ITEM: ATOMS id type xs ys zs
ITEM: TIMESTEP
2500
ITEM: NUMBER OF ATOMS
45
ITEM: BOX BOUNDS ff fm pp
0.0000000000000000e+00 1.0000000000000000e+01
0.0000000000000000e+00 1.1000000000000000e+02
-5.0000000000000000e-01 5.0000000000000000e-01
ITEM: ATOMS id type xs ys zs
41 1 0.890614 0.579472 0.5
34 1 0.914244 0.673951 0.5
7 1 0.56005 0.703066 0.5
22 1 0.321872 0.698009 0.5
35 1 0.755984 0.699809 0.5
15 1 0.248247 0.705266 0.5
24 1 0.072263 0.735094 0.5
39 1 0.506141 0.743223 0.5
2 1 0.758446 0.748467 0.5
25 1 0.650815 0.743444 0.5
14 1 0.538647 0.762529 0.5
27 1 0.251828 0.77802 0.5
30 1 0.119167 0.784036 0.5
3 1 0.475924 0.79105 0.5
20 1 0.593297 0.783108 0.5
1 1 0.908594 0.789167 0.5
31 1 0.183921 0.807603 0.5
43 1 0.363438 0.815798 0.5
21 1 0.505327 0.814382 0.5
23 1 0.967558 0.799806 0.5
42 1 0.814286 0.80901 0.5
45 1 0.938543 0.81038 0.5
19 1 0.593261 0.828969 0.5
38 1 0.466851 0.831929 0.5
29 1 0.201288 0.841707 0.5
28 1 0.696817 0.834629 0.5
33 1 0.702575 0.850866 0.5
40 1 0.88063 0.855863 0.5
36 1 0.296801 0.865949 0.5
4 1 0.662991 0.85887 0.5
9 1 0.373379 0.880878 0.5
18 1 0.838307 0.870528 0.5
26 1 0.752253 0.874949 0.5
8 1 0.272756 0.888307 0.5
6 1 0.121174 0.891019 0.5
12 1 0.662998 0.890178 0.5
5 1 0.879777 0.891768 0.5
10 1 0.282094 0.905872 0.5
17 1 0.414156 0.909033 0.5
11 1 0.311718 0.927303 0.5
44 1 0.474529 0.927584 0.5
16 1 0.899882 0.93124 0.5
13 1 0.862519 0.948872 0.5
32 1 0.871981 0.97119 0.5
37 1 0.947911 0.990228 0.5
ITEM: TIMESTEP
5000
ITEM: NUMBER OF ATOMS
87
ITEM: BOX BOUNDS ff fm pp
0.0000000000000000e+00 1.0000000000000000e+01
0.0000000000000000e+00 1.1000000000000000e+02
-5.0000000000000000e-01 5.0000000000000000e-01
ITEM: ATOMS id type xs ys zs
41 1 0.0997001 0.117827 0.5
22 1 0.540727 0.327377 0.5
34 1 0.844945 0.362313 0.5
35 1 0.555058 0.352365 0.5
15 1 0.353288 0.361562 0.5
7 1 0.725769 0.417824 0.5
25 1 0.812824 0.450801 0.5
24 1 0.0710158 0.466548 0.5
39 1 0.663303 0.472661 0.5
2 1 0.171393 0.525048 0.5
14 1 0.606091 0.526375 0.5
20 1 0.392231 0.523349 0.5
27 1 0.305434 0.537567 0.5
3 1 0.439698 0.50794 0.5
1 1 0.577196 0.536145 0.5
30 1 0.183528 0.557327 0.5
23 1 0.66158 0.55163 0.5
42 1 0.62988 0.578394 0.5
45 1 0.797762 0.582695 0.5
21 1 0.452958 0.607865 0.5
31 1 0.333909 0.62574 0.5
43 1 0.625951 0.633516 0.5
28 1 0.795003 0.643276 0.5
19 1 0.366194 0.649609 0.5
38 1 0.138331 0.659131 0.5
33 1 0.680063 0.649454 0.5
29 1 0.361429 0.66875 0.5
40 1 0.832543 0.673751 0.5
4 1 0.507946 0.677366 0.5
18 1 0.807789 0.688662 0.5
26 1 0.755221 0.697275 0.5
36 1 0.652047 0.717324 0.5
9 1 0.0928938 0.705128 0.5
12 1 0.289769 0.731328 0.5
5 1 0.574632 0.733409 0.5
6 1 0.402786 0.744881 0.5
8 1 0.320235 0.787342 0.5
17 1 0.598644 0.781504 0.5
10 1 0.448071 0.787906 0.5
11 1 0.0373376 0.794235 0.5
44 1 0.334787 0.810819 0.5
16 1 0.948126 0.835823 0.5
13 1 0.719094 0.85432 0.5
32 1 0.711474 0.868223 0.5
37 1 0.33428 0.93506 0.5
46 1 0.894912 0.990583 0.5
47 1 0.248453 0.9657 0.5
48 1 0.623205 0.974333 0.5
49 1 0.501173 0.926472 0.5
50 1 0.447326 0.985862 0.5
51 1 0.11318 0.955958 0.5
52 1 0.901209 0.938373 0.5
53 1 0.960125 0.95162 0.5
54 1 0.0287448 0.962622 0.5
55 1 0.194411 0.891685 0.5
56 1 0.623105 0.962455 0.5
57 1 0.581153 0.867675 0.5
58 1 0.407893 0.963773 0.5
59 1 0.673117 0.920445 0.5
60 1 0.224853 0.915456 0.5
61 1 0.819183 0.986327 0.5
62 1 0.558651 0.945851 0.5
63 1 0.200836 0.93572 0.5
64 1 0.085435 0.968214 0.5
65 1 0.926884 0.9265 0.5
66 1 0.258891 0.981731 0.5
67 1 0.551429 0.953827 0.5
68 1 0.623189 0.952072 0.5
69 1 0.0365286 0.932414 0.5
70 1 0.813569 0.884655 0.5
71 1 0.175391 0.983861 0.5
72 1 0.122889 0.945617 0.5
73 1 0.533119 0.874659 0.5
74 1 0.739652 0.954038 0.5
75 1 0.412832 0.922222 0.5
76 1 0.804333 0.995955 0.5
77 1 0.397011 0.899846 0.5
78 1 0.457313 0.950543 0.5
79 1 0.445901 0.973408 0.5
80 1 0.629453 0.89705 0.5
81 1 0.877277 0.969057 0.5
82 1 0.735941 0.935507 0.5
83 1 0.741044 0.96607 0.5
84 1 0.375486 0.88818 0.5
85 1 0.927885 0.960625 0.5
86 1 0.32274 0.926077 0.5
87 1 0.280837 0.952598 0.5
ITEM: TIMESTEP
7500
ITEM: NUMBER OF ATOMS
87
ITEM: BOX BOUNDS ff fm pp
0.0000000000000000e+00 1.0000000000000000e+01
0.0000000000000000e+00 1.1000000000000000e+02
-5.0000000000000000e-01 5.0000000000000000e-01
ITEM: ATOMS id type xs ys zs
22 1 0.288953 0.00391155 0.5
41 1 0.349416 0.0201229 0.5
15 1 0.864006 0.0288338 0.5
34 1 0.96078 0.0136705 0.5
35 1 0.957393 0.042901 0.5
7 1 0.8054 0.0799252 0.5
25 1 0.961257 0.101339 0.5
24 1 0.110192 0.141183 0.5
39 1 0.794219 0.143137 0.5
3 1 0.58723 0.137342 0.5
20 1 0.0743426 0.193262 0.5
14 1 0.673535 0.233403 0.5
27 1 0.344556 0.238587 0.5
1 1 0.497707 0.240114 0.5
2 1 0.308232 0.251389 0.5
23 1 0.360406 0.246308 0.5
30 1 0.207656 0.275211 0.5
42 1 0.445474 0.290961 0.5
45 1 0.603599 0.298192 0.5
21 1 0.400588 0.344529 0.5
19 1 0.246109 0.386641 0.5
31 1 0.420868 0.397578 0.5
33 1 0.657552 0.391225 0.5
43 1 0.8198 0.391852 0.5
28 1 0.938566 0.398023 0.5
38 1 0.22922 0.416979 0.5
40 1 0.784457 0.434822 0.5
29 1 0.61786 0.453345 0.5
4 1 0.72795 0.447119 0.5
18 1 0.85715 0.450173 0.5
26 1 0.752585 0.462953 0.5
9 1 0.336129 0.470315 0.5
36 1 0.953295 0.517081 0.5
12 1 0.122348 0.515661 0.5
5 1 0.269488 0.518232 0.5
10 1 0.0439633 0.525951 0.5
6 1 0.684397 0.541925 0.5
17 1 0.805226 0.525359 0.5
73 1 0.578248 0.572558 0.5
57 1 0.92174 0.586142 0.5
11 1 0.357241 0.60156 0.5
8 1 0.250964 0.62229 0.5
44 1 0.214879 0.633679 0.5
32 1 0.380747 0.696698 0.5
16 1 0.403495 0.688436 0.5
70 1 0.846257 0.677473 0.5
13 1 0.575669 0.70295 0.5
55 1 0.297429 0.714723 0.5
80 1 0.671816 0.717582 0.5
84 1 0.288121 0.739592 0.5
49 1 0.408078 0.755707 0.5
65 1 0.912884 0.753397 0.5
77 1 0.456136 0.765383 0.5
60 1 0.343799 0.772819 0.5
62 1 0.799124 0.775618 0.5
59 1 0.94486 0.774932 0.5
86 1 0.0675602 0.786117 0.5
75 1 0.271406 0.79509 0.5
78 1 0.71794 0.790981 0.5
67 1 0.859592 0.789209 0.5
37 1 0.145391 0.798117 0.5
52 1 0.846181 0.806307 0.5
47 1 0.345341 0.804566 0.5
69 1 0.0365286 0.816359 0.5
82 1 0.936998 0.813522 0.5
63 1 0.0579478 0.830783 0.5
87 1 0.25562 0.829188 0.5
53 1 0.85761 0.833877 0.5
83 1 0.360786 0.829429 0.5
58 1 0.724842 0.840439 0.5
68 1 0.901792 0.843163 0.5
74 1 0.960149 0.83701 0.5
54 1 0.700616 0.848661 0.5
79 1 0.24073 0.855946 0.5
85 1 0.878915 0.858693 0.5
81 1 0.567483 0.878967 0.5
72 1 0.216915 0.887944 0.5
64 1 0.351142 0.896959 0.5
51 1 0.304142 0.907264 0.5
61 1 0.448755 0.910704 0.5
56 1 0.546358 0.912072 0.5
48 1 0.849665 0.942637 0.5
66 1 0.0909357 0.949609 0.5
76 1 0.268273 0.956027 0.5
71 1 0.195493 0.960946 0.5
46 1 0.315151 0.965901 0.5
50 1 0.23427 0.978049 0.5
ITEM: TIMESTEP
10000
ITEM: NUMBER OF ATOMS
125
ITEM: BOX BOUNDS ff fm pp
0.0000000000000000e+00 1.0000000000000000e+01
0.0000000000000000e+00 1.1000000000000000e+02
-5.0000000000000000e-01 5.0000000000000000e-01
ITEM: ATOMS id type xs ys zs
35 1 0.122036 0.0159451 0.5
34 1 0.832442 0.0218224 0.5
20 1 0.691993 0.0185823 0.5
24 1 0.277071 0.0201503 0.5
7 1 0.390059 0.0181622 0.5
15 1 0.687314 0.0032862 0.5
41 1 0.222766 0.0073607 0.5
14 1 0.937956 0.0116601 0.5
23 1 0.191558 0.023722 0.5
39 1 0.836351 0.00444826 0.5
25 1 0.498957 0.087249 0.5
1 1 0.731434 0.0103227 0.5
3 1 0.904105 0.0266234 0.5
30 1 0.475231 0.0450773 0.5
27 1 0.477726 0.034126 0.5
42 1 0.247357 0.0281941 0.5
2 1 0.254307 0.0462213 0.5
45 1 0.593125 0.0213783 0.5
22 1 0.308796 0.132447 0.5
21 1 0.36249 0.0909303 0.5
19 1 0.163401 0.0495891 0.5
33 1 0.63504 0.0761767 0.5
43 1 0.805746 0.0842256 0.5
28 1 0.877621 0.105097 0.5
31 1 0.507827 0.112598 0.5
38 1 0.176864 0.183348 0.5
40 1 0.74967 0.13445 0.5
4 1 0.646065 0.147476 0.5
18 1 0.801173 0.157851 0.5
29 1 0.632896 0.162178 0.5
9 1 0.579364 0.178684 0.5
26 1 0.871965 0.190517 0.5
12 1 0.242397 0.153717 0.5
17 1 0.698859 0.190244 0.5
5 1 0.38886 0.223225 0.5
10 1 0.0619638 0.246394 0.5
36 1 0.763768 0.260019 0.5
73 1 0.304096 0.251925 0.5
6 1 0.947502 0.28215 0.5
57 1 0.676138 0.314946 0.5
11 1 0.677144 0.352068 0.5
8 1 0.0666886 0.357128 0.5
44 1 0.921157 0.410005 0.5
70 1 0.954283 0.419201 0.5
16 1 0.317657 0.440615 0.5
13 1 0.489289 0.429722 0.5
55 1 0.0621709 0.468382 0.5
80 1 0.718873 0.488929 0.5
65 1 0.860757 0.499233 0.5
84 1 0.0594979 0.538347 0.5
32 1 0.541822 0.548639 0.5
49 1 0.377969 0.543546 0.5
62 1 0.799969 0.533564 0.5
59 1 0.892974 0.538383 0.5
77 1 0.361846 0.555901 0.5
67 1 0.703077 0.568091 0.5
86 1 0.155468 0.572349 0.5
60 1 0.297735 0.578049 0.5
75 1 0.0622329 0.585941 0.5
78 1 0.949064 0.601447 0.5
37 1 0.0927996 0.59418 0.5
47 1 0.163025 0.608446 0.5
82 1 0.897664 0.62107 0.5
69 1 0.262518 0.620438 0.5
52 1 0.537927 0.64103 0.5
87 1 0.124921 0.646465 0.5
83 1 0.282886 0.646733 0.5
63 1 0.151807 0.665601 0.5
74 1 0.857728 0.667201 0.5
53 1 0.938881 0.689734 0.5
58 1 0.49398 0.685558 0.5
54 1 0.817225 0.683531 0.5
79 1 0.314346 0.692965 0.5
68 1 0.963525 0.701738 0.5
85 1 0.94798 0.725761 0.5
81 1 0.053997 0.736312 0.5
72 1 0.37288 0.772056 0.5
64 1 0.968031 0.789782 0.5
51 1 0.246388 0.797049 0.5
56 1 0.460921 0.808003 0.5
61 1 0.197551 0.826068 0.5
76 1 0.219932 0.804999 0.5
66 1 0.233404 0.842214 0.5
95 1 0.266444 0.860491 0.5
107 1 0.474947 0.841429 0.5
120 1 0.325228 0.856135 0.5
48 1 0.62267 0.827353 0.5
100 1 0.0901925 0.805765 0.5
71 1 0.132151 0.859918 0.5
101 1 0.951402 0.831821 0.5
122 1 0.354552 0.874354 0.5
89 1 0.722861 0.879595 0.5
46 1 0.234998 0.87204 0.5
98 1 0.327691 0.900842 0.5
121 1 0.417631 0.852356 0.5
125 1 0.870469 0.853249 0.5
93 1 0.263127 0.921309 0.5
96 1 0.964183 0.912104 0.5
118 1 0.0606276 0.868165 0.5
50 1 0.259607 0.911106 0.5
119 1 0.532269 0.908008 0.5
114 1 0.625761 0.868054 0.5
123 1 0.146776 0.919149 0.5
99 1 0.780717 0.888328 0.5
94 1 0.213461 0.938499 0.5
90 1 0.399513 0.93843 0.5
97 1 0.530585 0.895403 0.5
88 1 0.720688 0.906473 0.5
106 1 0.652671 0.901952 0.5
110 1 0.444598 0.953765 0.5
111 1 0.392768 0.921756 0.5
113 1 0.604387 0.915301 0.5
115 1 0.188965 0.954218 0.5
117 1 0.696624 0.929798 0.5
109 1 0.769125 0.929599 0.5
124 1 0.791826 0.914296 0.5
92 1 0.418724 0.964755 0.5
116 1 0.498135 0.942955 0.5
104 1 0.752532 0.937093 0.5
102 1 0.810425 0.952887 0.5
103 1 0.152328 0.969616 0.5
105 1 0.311565 0.980939 0.5
91 1 0.609918 0.977448 0.5
108 1 0.640814 0.959735 0.5
112 1 0.686702 0.947899 0.5
ITEM: TIMESTEP
12500
ITEM: NUMBER OF ATOMS
125
ITEM: BOX BOUNDS ff fm pp
0.0000000000000000e+00 1.0000000000000000e+01
0.0000000000000000e+00 1.1000000000000000e+02
-5.0000000000000000e-01 5.0000000000000000e-01
ITEM: ATOMS id type xs ys zs
24 1 0.0938693 0.00604223 0.5
42 1 0.185366 0.00513544 0.5
27 1 0.366609 0.00632246 0.5
43 1 0.592144 0.00436091 0.5
1 1 0.859911 0.00718902 0.5
14 1 0.267983 0.00492528 0.5
2 1 0.449767 0.00398098 0.5
45 1 0.750968 0.0105784 0.5
20 1 0.0504805 0.0228898 0.5
15 1 0.174078 0.0182364 0.5
3 1 0.247716 0.013762 0.5
29 1 0.687546 0.0161642 0.5
26 1 0.611418 0.0264987 0.5
17 1 0.803537 0.0252557 0.5
30 1 0.0616244 0.0331074 0.5
34 1 0.293524 0.0252604 0.5
40 1 0.511239 0.0266853 0.5
39 1 0.913648 0.0369107 0.5
28 1 0.195916 0.0286098 0.5
9 1 0.415675 0.0336764 0.5
18 1 0.702453 0.0315964 0.5
4 1 0.0810964 0.0519467 0.5
33 1 0.206908 0.0502293 0.5
38 1 0.212336 0.0407453 0.5
19 1 0.874372 0.0437612 0.5
12 1 0.195729 0.0729605 0.5
23 1 0.390789 0.0778352 0.5
7 1 0.119629 0.0583634 0.5
41 1 0.385248 0.0584013 0.5
25 1 0.968402 0.0427398 0.5
36 1 0.505213 0.0462495 0.5
5 1 0.744557 0.0453862 0.5
21 1 0.0734526 0.0806608 0.5
22 1 0.867308 0.0581584 0.5
10 1 0.355083 0.0856411 0.5
35 1 0.682037 0.104078 0.5
6 1 0.900425 0.0666177 0.5
31 1 0.638172 0.048472 0.5
8 1 0.166183 0.0874689 0.5
73 1 0.63991 0.0722259 0.5
11 1 0.972227 0.0831686 0.5
57 1 0.555784 0.127233 0.5
13 1 0.727147 0.0903758 0.5
44 1 0.939216 0.0998136 0.5
16 1 0.0881849 0.130173 0.5
70 1 0.690995 0.149948 0.5
55 1 0.127107 0.184513 0.5
80 1 0.643778 0.186646 0.5
65 1 0.938972 0.210374 0.5
62 1 0.734115 0.215488 0.5
59 1 0.84237 0.245954 0.5
49 1 0.119298 0.263183 0.5
84 1 0.183645 0.280284 0.5
77 1 0.135335 0.290381 0.5
32 1 0.607172 0.289992 0.5
86 1 0.278 0.301764 0.5
75 1 0.193986 0.311414 0.5
37 1 0.17039 0.32182 0.5
60 1 0.222811 0.328891 0.5
69 1 0.647425 0.353578 0.5
78 1 0.793068 0.359798 0.5
67 1 0.963521 0.363508 0.5
47 1 0.0484264 0.368047 0.5
82 1 0.846946 0.374202 0.5
87 1 0.0521446 0.410368 0.5
83 1 0.211248 0.411254 0.5
52 1 0.466375 0.416298 0.5
74 1 0.658417 0.437324 0.5
63 1 0.264087 0.443601 0.5
58 1 0.286034 0.456586 0.5
54 1 0.945708 0.457623 0.5
53 1 0.930278 0.489486 0.5
100 1 0.816237 0.454994 0.5
68 1 0.893274 0.495853 0.5
79 1 0.418625 0.465953 0.5
48 1 0.351683 0.514454 0.5
81 1 0.263423 0.524376 0.5
64 1 0.464814 0.560803 0.5
85 1 0.917622 0.528372 0.5
107 1 0.761522 0.552554 0.5
51 1 0.0491395 0.560469 0.5
101 1 0.913325 0.559577 0.5
56 1 0.350961 0.5754 0.5
72 1 0.484145 0.597165 0.5
125 1 0.945987 0.580471 0.5
66 1 0.254392 0.584897 0.5
61 1 0.153454 0.592492 0.5
106 1 0.244588 0.603597 0.5
114 1 0.664624 0.601803 0.5
76 1 0.126779 0.606986 0.5
121 1 0.68575 0.629719 0.5
71 1 0.098363 0.645693 0.5
120 1 0.871306 0.648014 0.5
95 1 0.190416 0.662953 0.5
122 1 0.358866 0.677763 0.5
89 1 0.538693 0.665994 0.5
118 1 0.184875 0.675084 0.5
99 1 0.832225 0.685345 0.5
46 1 0.170004 0.695729 0.5
88 1 0.692686 0.707217 0.5
97 1 0.369058 0.726668 0.5
124 1 0.691983 0.717912 0.5
98 1 0.185278 0.721836 0.5
119 1 0.5718 0.740863 0.5
96 1 0.89065 0.733892 0.5
111 1 0.469409 0.746937 0.5
50 1 0.200654 0.752847 0.5
113 1 0.436132 0.767922 0.5
117 1 0.930775 0.783145 0.5
90 1 0.050013 0.788433 0.5
123 1 0.0746525 0.806004 0.5
109 1 0.203809 0.784662 0.5
104 1 0.702205 0.803152 0.5
102 1 0.348369 0.821409 0.5
93 1 0.0490815 0.82168 0.5
110 1 0.194302 0.825261 0.5
116 1 0.328911 0.833226 0.5
94 1 0.0585147 0.844366 0.5
112 1 0.816053 0.860267 0.5
115 1 0.302172 0.877006 0.5
103 1 0.617146 0.89053 0.5
105 1 0.228302 0.903535 0.5
92 1 0.724629 0.911213 0.5
108 1 0.784485 0.923391 0.5
91 1 0.913618 0.941761 0.5
ITEM: TIMESTEP
15000
ITEM: NUMBER OF ATOMS
162
ITEM: BOX BOUNDS ff fm pp
0.0000000000000000e+00 1.0000000000000000e+01
0.0000000000000000e+00 1.1000000000000000e+02
-5.0000000000000000e-01 5.0000000000000000e-01
ITEM: ATOMS id type xs ys zs
14 1 0.30053 0.00612642 0.5
43 1 0.441298 0.00442933 0.5
1 1 0.945189 0.0036158 0.5
24 1 0.177466 0.00439038 0.5
42 1 0.255284 0.0179826 0.5
17 1 0.684538 0.00710737 0.5
36 1 0.377349 0.0122343 0.5
27 1 0.568189 0.0059349 0.5
2 1 0.776129 0.00532785 0.5
20 1 0.107161 0.0117683 0.5
45 1 0.860014 0.00593316 0.5
39 1 0.923674 0.0158314 0.5
3 1 0.337599 0.0205986 0.5
40 1 0.506332 0.0246245 0.5
11 1 0.494593 0.0162136 0.5
29 1 0.59471 0.0177407 0.5
31 1 0.816877 0.0151201 0.5
25 1 0.808504 0.0227733 0.5
4 1 0.409119 0.0262571 0.5
15 1 0.590655 0.0368966 0.5
26 1 0.608393 0.0275007 0.5
21 1 0.0567507 0.0201075 0.5
38 1 0.71432 0.0160895 0.5
18 1 0.782935 0.0348054 0.5
5 1 0.889624 0.0263163 0.5
30 1 0.20098 0.0240627 0.5
9 1 0.672354 0.0396029 0.5
44 1 0.717976 0.0261767 0.5
34 1 0.449115 0.0340528 0.5
19 1 0.765145 0.0478378 0.5
55 1 0.0495563 0.0293488 0.5
33 1 0.271212 0.0326388 0.5
28 1 0.327917 0.0408416 0.5
13 1 0.504056 0.0642202 0.5
70 1 0.946939 0.0495134 0.5
41 1 0.778605 0.0415008 0.5
12 1 0.164321 0.0373461 0.5
6 1 0.386992 0.0662245 0.5
73 1 0.534442 0.0528148 0.5
35 1 0.855571 0.0673913 0.5
16 1 0.0349822 0.0415155 0.5
8 1 0.149243 0.0522357 0.5
22 1 0.737017 0.0867705 0.5
7 1 0.375558 0.0812881 0.5
65 1 0.787896 0.0560913 0.5
23 1 0.863587 0.0757971 0.5
10 1 0.0860493 0.0622809 0.5
57 1 0.218449 0.0611743 0.5
84 1 0.0467628 0.0533757 0.5
59 1 0.886869 0.0381324 0.5
80 1 0.616203 0.0690701 0.5
86 1 0.704282 0.0650672 0.5
49 1 0.0424934 0.0717167 0.5
75 1 0.486198 0.0764852 0.5
62 1 0.314339 0.0884763 0.5
37 1 0.126919 0.0765046 0.5
32 1 0.89726 0.117751 0.5
60 1 0.139316 0.0945873 0.5
77 1 0.251912 0.115644 0.5
69 1 0.593189 0.104563 0.5
67 1 0.664159 0.0783287 0.5
78 1 0.517445 0.0859101 0.5
47 1 0.0838429 0.110427 0.5
100 1 0.519101 0.11447 0.5
82 1 0.563343 0.126889 0.5
79 1 0.302273 0.0718549 0.5
87 1 0.191203 0.144517 0.5
83 1 0.367653 0.138101 0.5
52 1 0.61494 0.145921 0.5
74 1 0.459107 0.150629 0.5
63 1 0.376368 0.164783 0.5
58 1 0.101365 0.167645 0.5
54 1 0.878992 0.174896 0.5
48 1 0.650568 0.165312 0.5
53 1 0.67146 0.177469 0.5
68 1 0.741058 0.216642 0.5
85 1 0.506922 0.212018 0.5
81 1 0.0826984 0.234331 0.5
101 1 0.797972 0.239202 0.5
51 1 0.234612 0.246399 0.5
56 1 0.324292 0.240915 0.5
66 1 0.172381 0.25421 0.5
125 1 0.806662 0.262622 0.5
61 1 0.42229 0.277388 0.5
107 1 0.272259 0.307158 0.5
76 1 0.102151 0.318151 0.5
72 1 0.061657 0.339365 0.5
106 1 0.0847298 0.352168 0.5
64 1 0.382216 0.363934 0.5
114 1 0.924774 0.36405 0.5
121 1 0.888079 0.377778 0.5
120 1 0.146096 0.37284 0.5
89 1 0.793871 0.395064 0.5
71 1 0.55766 0.418618 0.5
95 1 0.180818 0.42108 0.5
99 1 0.951665 0.415959 0.5
118 1 0.286171 0.43213 0.5
122 1 0.209458 0.449194 0.5
46 1 0.061786 0.458722 0.5
88 1 0.889566 0.440224 0.5
98 1 0.1933 0.460723 0.5
124 1 0.606985 0.470918 0.5
96 1 0.930302 0.464133 0.5
97 1 0.0722645 0.502038 0.5
50 1 0.0808887 0.526498 0.5
111 1 0.735731 0.51737 0.5
109 1 0.581066 0.515112 0.5
119 1 0.789813 0.553203 0.5
113 1 0.123115 0.55992 0.5
117 1 0.807972 0.587264 0.5
90 1 0.273225 0.594405 0.5
104 1 0.270581 0.613602 0.5
123 1 0.0492471 0.622227 0.5
102 1 0.176947 0.623871 0.5
93 1 0.0601329 0.637063 0.5
110 1 0.170448 0.673058 0.5
116 1 0.332911 0.679805 0.5
94 1 0.0612952 0.679245 0.5
112 1 0.458965 0.723764 0.5
115 1 0.548957 0.758932 0.5
103 1 0.881886 0.754626 0.5
105 1 0.644773 0.769312 0.5
92 1 0.928001 0.817135 0.5
108 1 0.426126 0.83023 0.5
158 1 0.642751 0.810758 0.5
140 1 0.272174 0.748901 0.5
153 1 0.343306 0.821643 0.5
135 1 0.561137 0.845866 0.5
91 1 0.827479 0.831726 0.5
145 1 0.321321 0.8463 0.5
128 1 0.88495 0.78749 0.5
150 1 0.0609487 0.850725 0.5
162 1 0.788213 0.849131 0.5
130 1 0.970386 0.827454 0.5
151 1 0.762726 0.862449 0.5
149 1 0.64877 0.861394 0.5
161 1 0.680725 0.881102 0.5
126 1 0.969981 0.865854 0.5
129 1 0.144484 0.873217 0.5
142 1 0.875714 0.866557 0.5
148 1 0.752609 0.889721 0.5
155 1 0.0490122 0.865985 0.5
139 1 0.298579 0.858405 0.5
141 1 0.403339 0.887906 0.5
134 1 0.0491453 0.872462 0.5
146 1 0.210526 0.898643 0.5
138 1 0.34765 0.899449 0.5
144 1 0.599923 0.919658 0.5
152 1 0.250271 0.911324 0.5
131 1 0.414882 0.93385 0.5
159 1 0.460924 0.908131 0.5
147 1 0.0901376 0.91805 0.5
156 1 0.804997 0.915142 0.5
137 1 0.684813 0.930688 0.5
132 1 0.955945 0.926857 0.5
157 1 0.0817466 0.927664 0.5
133 1 0.844689 0.936629 0.5
143 1 0.194761 0.947733 0.5
127 1 0.573886 0.957267 0.5
160 1 0.495779 0.971143 0.5
154 1 0.602928 0.978791 0.5
136 1 0.794079 0.982222 0.5
ITEM: TIMESTEP
17500
ITEM: NUMBER OF ATOMS
162
ITEM: BOX BOUNDS ff fm pp
0.0000000000000000e+00 1.0000000000000000e+01
0.0000000000000000e+00 1.1000000000000000e+02
-5.0000000000000000e-01 5.0000000000000000e-01
ITEM: ATOMS id type xs ys zs
20 1 0.0566393 0.00440705 0.5
24 1 0.274503 0.00378642 0.5
14 1 0.423238 0.00397809 0.5
43 1 0.525009 0.00483338 0.5
27 1 0.626755 0.00457586 0.5
17 1 0.727126 0.00438616 0.5
2 1 0.819707 0.00300522 0.5
1 1 0.904205 0.00450482 0.5
30 1 0.165492 0.00454864 0.5
42 1 0.346231 0.0080596 0.5
38 1 0.682019 0.0121181 0.5
45 1 0.862444 0.0153664 0.5
21 1 0.0494348 0.0140093 0.5
55 1 0.156498 0.0138889 0.5
33 1 0.263929 0.0130151 0.5
4 1 0.352503 0.0149928 0.5
3 1 0.415991 0.0116613 0.5
36 1 0.523716 0.0139436 0.5
11 1 0.606654 0.0123483 0.5
31 1 0.77101 0.0126595 0.5
39 1 0.950917 0.0125446 0.5
12 1 0.431761 0.0192452 0.5
29 1 0.618718 0.019429 0.5
44 1 0.700308 0.0217171 0.5
25 1 0.89278 0.0216384 0.5
5 1 0.96729 0.0205145 0.5
16 1 0.0288589 0.0255512 0.5
84 1 0.1039 0.0220346 0.5
8 1 0.321471 0.0224281 0.5
40 1 0.538881 0.0228941 0.5
26 1 0.624706 0.0291403 0.5
19 1 0.761262 0.0288897 0.5
9 1 0.800908 0.0221669 0.5
57 1 0.220574 0.0221257 0.5
28 1 0.406825 0.0288236 0.5
100 1 0.491596 0.0291275 0.5
18 1 0.860116 0.0293558 0.5
59 1 0.948526 0.0287576 0.5
10 1 0.0559051 0.0352903 0.5
77 1 0.166414 0.0303177 0.5
79 1 0.286336 0.0297473 0.5
34 1 0.545836 0.0355192 0.5
13 1 0.669269 0.0374243 0.5
65 1 0.794797 0.0360901 0.5
49 1 0.0577702 0.0449123 0.5
82 1 0.254973 0.0377418 0.5
15 1 0.359018 0.039624 0.5
60 1 0.447951 0.0382322 0.5
62 1 0.46074 0.0458608 0.5
41 1 0.757335 0.0430854 0.5
70 1 0.896702 0.0371058 0.5
6 1 0.152287 0.0394932 0.5
80 1 0.735703 0.0507118 0.5
86 1 0.840917 0.0469447 0.5
35 1 0.95286 0.0455057 0.5
37 1 0.157882 0.0496382 0.5
56 1 0.254876 0.0471479 0.5
83 1 0.343319 0.0513124 0.5
7 1 0.614735 0.0467881 0.5
58 1 0.0837166 0.0547831 0.5
47 1 0.221855 0.0560654 0.5
22 1 0.812679 0.0544927 0.5
78 1 0.91029 0.0537806 0.5
51 1 0.317794 0.0624083 0.5
63 1 0.484062 0.0552931 0.5
69 1 0.54065 0.0453656 0.5
75 1 0.879788 0.0630097 0.5
73 1 0.972369 0.0612327 0.5
87 1 0.144253 0.06245 0.5
85 1 0.669014 0.0623548 0.5
54 1 0.796953 0.061606 0.5
61 1 0.0599471 0.0637266 0.5
74 1 0.412828 0.0702851 0.5
68 1 0.584751 0.0578561 0.5
52 1 0.916291 0.0718601 0.5
76 1 0.0999114 0.0703901 0.5
125 1 0.517916 0.0639288 0.5
101 1 0.863774 0.0858673 0.5
66 1 0.25024 0.073065 0.5
72 1 0.285665 0.0820071 0.5
81 1 0.703064 0.0810587 0.5
48 1 0.787245 0.0915954 0.5
107 1 0.162161 0.0833412 0.5
114 1 0.628297 0.094735 0.5
23 1 0.757875 0.0729238 0.5
120 1 0.487932 0.0758865 0.5
67 1 0.881141 0.111565 0.5
106 1 0.213491 0.10247 0.5
64 1 0.391984 0.0889108 0.5
121 1 0.566237 0.106032 0.5
89 1 0.737316 0.107383 0.5
32 1 0.927136 0.11811 0.5
71 1 0.584776 0.124786 0.5
99 1 0.833237 0.123101 0.5
53 1 0.637353 0.165485 0.5
95 1 0.355407 0.123106 0.5
88 1 0.7513 0.131199 0.5
118 1 0.378904 0.134564 0.5
122 1 0.2109 0.137646 0.5
96 1 0.831074 0.137555 0.5
98 1 0.386698 0.156837 0.5
124 1 0.440937 0.216782 0.5
46 1 0.175698 0.177011 0.5
109 1 0.747104 0.188744 0.5
97 1 0.337691 0.202942 0.5
111 1 0.924419 0.230985 0.5
50 1 0.133865 0.260979 0.5
113 1 0.190967 0.2951 0.5
119 1 0.398034 0.308725 0.5
117 1 0.617889 0.334564 0.5
104 1 0.219697 0.337701 0.5
90 1 0.496437 0.343559 0.5
102 1 0.170713 0.369017 0.5
123 1 0.0708245 0.380237 0.5
93 1 0.0375419 0.395662 0.5
116 1 0.913573 0.385294 0.5
110 1 0.0873517 0.404427 0.5
94 1 0.159065 0.46523 0.5
128 1 0.472563 0.43591 0.5
140 1 0.551283 0.493327 0.5
112 1 0.157404 0.530452 0.5
158 1 0.0688399 0.51753 0.5
105 1 0.818022 0.537795 0.5
103 1 0.603879 0.561904 0.5
92 1 0.946023 0.572885 0.5
115 1 0.795743 0.584041 0.5
145 1 0.116105 0.596154 0.5
153 1 0.223801 0.602591 0.5
91 1 0.856805 0.599965 0.5
139 1 0.636954 0.628801 0.5
130 1 0.948765 0.632194 0.5
108 1 0.627641 0.655119 0.5
150 1 0.188967 0.658692 0.5
135 1 0.343376 0.664443 0.5
134 1 0.447185 0.681996 0.5
149 1 0.637517 0.679888 0.5
155 1 0.300206 0.691198 0.5
151 1 0.647404 0.704545 0.5
162 1 0.814914 0.704572 0.5
126 1 0.916177 0.705744 0.5
141 1 0.404026 0.711641 0.5
161 1 0.349383 0.722559 0.5
142 1 0.86542 0.725506 0.5
138 1 0.0590188 0.71889 0.5
146 1 0.0488158 0.732382 0.5
148 1 0.705027 0.745712 0.5
152 1 0.179581 0.748651 0.5
129 1 0.676862 0.754384 0.5
147 1 0.35927 0.75482 0.5
159 1 0.459954 0.756026 0.5
156 1 0.582829 0.772906 0.5
132 1 0.634459 0.7862 0.5
144 1 0.287437 0.790086 0.5
157 1 0.157632 0.798945 0.5
133 1 0.870762 0.80525 0.5
143 1 0.116832 0.810067 0.5
131 1 0.298487 0.8313 0.5
137 1 0.839291 0.831709 0.5
127 1 0.682842 0.854278 0.5
160 1 0.295131 0.874934 0.5
154 1 0.387339 0.899531 0.5
136 1 0.751338 0.948344 0.5
ITEM: TIMESTEP
20000
ITEM: NUMBER OF ATOMS
192
ITEM: BOX BOUNDS ff fm pp
0.0000000000000000e+00 1.0000000000000000e+01
0.0000000000000000e+00 1.1000000000000000e+02
-5.0000000000000000e-01 5.0000000000000000e-01
ITEM: ATOMS id type xs ys zs
20 1 0.0485647 0.00413502 0.5
30 1 0.148477 0.00400376 0.5
24 1 0.250577 0.00400768 0.5
14 1 0.388147 0.00406209 0.5
43 1 0.489776 0.00399091 0.5
27 1 0.589954 0.00418192 0.5
17 1 0.690264 0.00464581 0.5
2 1 0.77263 0.00265031 0.5
1 1 0.855137 0.00435011 0.5
42 1 0.326877 0.0094771 0.5
38 1 0.635713 0.0106836 0.5
39 1 0.954759 0.00472342 0.5
21 1 0.049528 0.0139584 0.5
55 1 0.149907 0.0134604 0.5
33 1 0.2518 0.0130837 0.5
4 1 0.337204 0.0157727 0.5
3 1 0.393418 0.0119341 0.5
36 1 0.478406 0.0130218 0.5
11 1 0.563426 0.0118536 0.5
31 1 0.777999 0.0104223 0.5
45 1 0.862838 0.0120347 0.5
16 1 0.0265443 0.0227002 0.5
12 1 0.410559 0.0200207 0.5
40 1 0.536773 0.0204521 0.5
29 1 0.611681 0.016743 0.5
44 1 0.699933 0.0162239 0.5
9 1 0.794146 0.019476 0.5
25 1 0.878008 0.0182842 0.5
5 1 0.934044 0.0139947 0.5
84 1 0.112192 0.0219348 0.5
57 1 0.217204 0.0217237 0.5
8 1 0.317626 0.0234455 0.5
26 1 0.644522 0.0238441 0.5
19 1 0.730758 0.0245467 0.5
18 1 0.866238 0.0248802 0.5
59 1 0.954694 0.0215244 0.5
10 1 0.0499782 0.0308696 0.5
77 1 0.165631 0.0296552 0.5
79 1 0.254169 0.0289279 0.5
28 1 0.39696 0.0290637 0.5
100 1 0.478101 0.0261685 0.5
34 1 0.567992 0.0297572 0.5
65 1 0.796432 0.0294959 0.5
15 1 0.320131 0.03249 0.5
60 1 0.480009 0.0340956 0.5
13 1 0.70001 0.0317394 0.5
70 1 0.954076 0.0306268 0.5
49 1 0.0445987 0.0400456 0.5
6 1 0.145595 0.0389267 0.5
82 1 0.241985 0.0365586 0.5
62 1 0.557334 0.0374133 0.5
69 1 0.628465 0.035854 0.5
7 1 0.694017 0.0423698 0.5
41 1 0.776926 0.0370859 0.5
86 1 0.862225 0.0362653 0.5
35 1 0.953665 0.0402112 0.5
37 1 0.221795 0.0440521 0.5
83 1 0.383382 0.038472 0.5
63 1 0.581548 0.0451285 0.5
80 1 0.773174 0.0466461 0.5
61 1 0.0496185 0.0478285 0.5
58 1 0.150077 0.048054 0.5
56 1 0.308471 0.0448261 0.5
125 1 0.481089 0.0432284 0.5
85 1 0.642209 0.0528256 0.5
78 1 0.873143 0.0455497 0.5
73 1 0.953476 0.048623 0.5
87 1 0.174925 0.0568315 0.5
47 1 0.312718 0.0543822 0.5
51 1 0.406086 0.0498117 0.5
81 1 0.51296 0.051936 0.5
76 1 0.0460241 0.0546369 0.5
68 1 0.544911 0.0619205 0.5
114 1 0.61394 0.0606797 0.5
120 1 0.647184 0.0773212 0.5
22 1 0.714851 0.0575201 0.5
75 1 0.896818 0.0554474 0.5
72 1 0.37417 0.0622854 0.5
74 1 0.466979 0.0594151 0.5
54 1 0.449172 0.0930054 0.5
52 1 0.798775 0.057817 0.5
66 1 0.241885 0.0640896 0.5
121 1 0.457464 0.0714658 0.5
89 1 0.583991 0.0688746 0.5
101 1 0.954001 0.0629264 0.5
107 1 0.049828 0.0623781 0.5
106 1 0.143886 0.0653001 0.5
71 1 0.665357 0.0655464 0.5
46 1 0.474832 0.0806584 0.5
48 1 0.759216 0.085424 0.5
64 1 0.942089 0.110262 0.5
97 1 0.194347 0.0879456 0.5
23 1 0.799365 0.0932111 0.5
67 1 0.690227 0.0856368 0.5
99 1 0.899519 0.0725161 0.5
118 1 0.0536537 0.0737381 0.5
109 1 0.162924 0.0725083 0.5
98 1 0.8101 0.105385 0.5
122 1 0.159481 0.101339 0.5
88 1 0.290586 0.0831955 0.5
96 1 0.846371 0.148288 0.5
95 1 0.147452 0.121402 0.5
53 1 0.326471 0.133236 0.5
32 1 0.867201 0.0888397 0.5
111 1 0.366463 0.0948635 0.5
113 1 0.0655172 0.10504 0.5
119 1 0.0474392 0.0961503 0.5
104 1 0.365982 0.0704358 0.5
50 1 0.863804 0.116402 0.5
117 1 0.276898 0.145995 0.5
116 1 0.563723 0.130705 0.5
90 1 0.830557 0.130388 0.5
102 1 0.120944 0.129764 0.5
110 1 0.257968 0.0988325 0.5
123 1 0.0852186 0.147352 0.5
128 1 0.586327 0.155871 0.5
93 1 0.318659 0.152734 0.5
124 1 0.0670554 0.176681 0.5
94 1 0.371375 0.210948 0.5
158 1 0.61516 0.167289 0.5
140 1 0.640265 0.223981 0.5
105 1 0.820958 0.251415 0.5
112 1 0.23964 0.275134 0.5
145 1 0.285619 0.288542 0.5
92 1 0.88678 0.292679 0.5
103 1 0.325871 0.312363 0.5
115 1 0.667524 0.29846 0.5
153 1 0.104296 0.326722 0.5
91 1 0.794054 0.35523 0.5
139 1 0.474398 0.352091 0.5
130 1 0.843252 0.377792 0.5
108 1 0.864387 0.408331 0.5
150 1 0.164207 0.405449 0.5
135 1 0.522453 0.433284 0.5
149 1 0.89769 0.436601 0.5
134 1 0.0309414 0.443565 0.5
141 1 0.166798 0.459638 0.5
138 1 0.27583 0.470759 0.5
151 1 0.610569 0.483378 0.5
155 1 0.228972 0.501738 0.5
162 1 0.856516 0.49905 0.5
126 1 0.96127 0.498834 0.5
146 1 0.156424 0.495034 0.5
161 1 0.133037 0.527944 0.5
142 1 0.938758 0.530606 0.5
148 1 0.802869 0.539413 0.5
152 1 0.206864 0.537382 0.5
159 1 0.650011 0.541922 0.5
147 1 0.358836 0.547583 0.5
129 1 0.787493 0.578732 0.5
132 1 0.299596 0.599791 0.5
156 1 0.753927 0.607064 0.5
144 1 0.0885019 0.603696 0.5
157 1 0.291792 0.613407 0.5
133 1 0.717756 0.617053 0.5
143 1 0.0547726 0.615584 0.5
131 1 0.182091 0.671932 0.5
137 1 0.925958 0.675911 0.5
127 1 0.791799 0.69447 0.5
160 1 0.070593 0.715263 0.5
154 1 0.154664 0.766306 0.5
169 1 0.794553 0.728499 0.5
175 1 0.389873 0.715314 0.5
184 1 0.51551 0.7163 0.5
136 1 0.1035 0.751687 0.5
181 1 0.644977 0.7462 0.5
188 1 0.620368 0.800791 0.5
189 1 0.735861 0.79877 0.5
178 1 0.279277 0.762967 0.5
187 1 0.0417262 0.812355 0.5
185 1 0.258327 0.783287 0.5
172 1 0.561015 0.824285 0.5
190 1 0.286289 0.822365 0.5
165 1 0.314734 0.844959 0.5
176 1 0.757712 0.819947 0.5
168 1 0.0752919 0.861051 0.5
167 1 0.572258 0.842959 0.5
182 1 0.50028 0.879931 0.5
180 1 0.780365 0.841186 0.5
191 1 0.870676 0.865909 0.5
183 1 0.0969306 0.872927 0.5
186 1 0.874728 0.852503 0.5
177 1 0.796727 0.886871 0.5
171 1 0.359265 0.895376 0.5
166 1 0.222491 0.851137 0.5
170 1 0.858979 0.875634 0.5
174 1 0.171527 0.937957 0.5
163 1 0.0645323 0.904623 0.5
173 1 0.549283 0.911536 0.5
164 1 0.730629 0.905578 0.5
192 1 0.345693 0.964962 0.5
179 1 0.793596 0.968736 0.5
ITEM: TIMESTEP
22500
ITEM: NUMBER OF ATOMS
219
ITEM: BOX BOUNDS ff fm pp
0.0000000000000000e+00 1.0000000000000000e+01
0.0000000000000000e+00 1.1000000000000000e+02
-5.0000000000000000e-01 5.0000000000000000e-01
ITEM: ATOMS id type xs ys zs
20 1 0.07453 0.00452572 0.5
30 1 0.178643 0.00440359 0.5
24 1 0.280159 0.00442725 0.5
14 1 0.381248 0.00437338 0.5
43 1 0.481504 0.00480832 0.5
27 1 0.582259 0.00471112 0.5
17 1 0.683777 0.00444166 0.5
2 1 0.76793 0.00312971 0.5
1 1 0.851377 0.00445643 0.5
39 1 0.951028 0.00533207 0.5
42 1 0.329648 0.0107278 0.5
38 1 0.641592 0.0111309 0.5
45 1 0.894637 0.0112364 0.5
21 1 0.0463582 0.0132961 0.5
55 1 0.146933 0.0131552 0.5
33 1 0.246909 0.0130279 0.5
3 1 0.402653 0.0120958 0.5
36 1 0.489513 0.0139379 0.5
11 1 0.573162 0.0123737 0.5