ITEM: TIMESTEP
54000
ITEM: NUMBER OF ATOMS
4
ITEM: BOX BOUNDS ff fm pp
0.0000000000000000e+00 3.0000000000000000e+00
0.0000000000000000e+00 5.0000000000000000e+00
-5.0000000000000000e-01 5.0000000000000000e-01
ITEM: ATOMS x y z radius
2.02869 0.970984 0 1
0.961877 2.65822 0 1
2.48637 2.58156 0 0.5
2.04054 4.11468 0 0.5
