ITEM: TIMESTEP
14000
ITEM: NUMBER OF ATOMS
2
ITEM: BOX BOUNDS ff fm pp
0.0000000000000000e+00 3.0000000000000000e+00
0.0000000000000000e+00 5.0000000000000000e+00
-5.0000000000000000e-01 5.0000000000000000e-01
ITEM: ATOMS x y z radius
2.51379 0.785535 0 0.5
1.01277 3.4457 0 1
