ITEM: TIMESTEP
128000
ITEM: NUMBER OF ATOMS
12
ITEM: BOX BOUNDS ff fm pp
0.0000000000000000e+00 4.0000000000000000e+00
0.0000000000000000e+00 9.0000000000000000e+00
-5.0000000000000000e-01 5.0000000000000000e-01
ITEM: ATOMS x y z radius
0.492497 0.497329 0 0.5
1.4919 0.474027 0 0.5
3.01371 0.970808 0 1
1.59938 1.4666 0 0.5
0.978747 2.8301 0 1
3.52025 2.3817 0 0.5
2.78453 3.68728 0 1
0.993688 4.8289 0 1
2.45913 5.15051 0 0.5
3.45605 5.07723 0 0.5
3.00787 6.54594 0 1
0.998332 6.82912 0 1
