ITEM: TIMESTEP
18500
ITEM: NUMBER OF ATOMS
2
ITEM: BOX BOUNDS ff fm pp
0.0000000000000000e+00 3.0000000000000000e+00
0.0000000000000000e+00 5.0000000000000000e+00
-5.0000000000000000e-01 5.0000000000000000e-01
ITEM: ATOMS x y z radius
1.47912 1.61944 0 0.5
1.04148 3.05821 0 1
