ITEM: TIMESTEP
28000
ITEM: NUMBER OF ATOMS
3
ITEM: BOX BOUNDS ff fm pp
0.0000000000000000e+00 3.0000000000000000e+00
0.0000000000000000e+00 5.0000000000000000e+00
-5.0000000000000000e-01 5.0000000000000000e-01
ITEM: ATOMS x y z radius
0.997777 1.00978 0 1
2.27297 2.20536 0 0.5
1.81942 3.88321 0 1
