ITEM: TIMESTEP
31500
ITEM: NUMBER OF ATOMS
3
ITEM: BOX BOUNDS ff fm pp
0.0000000000000000e+00 3.0000000000000000e+00
0.0000000000000000e+00 5.0000000000000000e+00
-5.0000000000000000e-01 5.0000000000000000e-01
ITEM: ATOMS x y z radius
1.01252 0.988072 0 1
2.37765 1.75046 0 0.5
1.48981 3.81434 0 1
