ITEM: TIMESTEP
45500
ITEM: NUMBER OF ATOMS
4
ITEM: BOX BOUNDS ff fm pp
0.0000000000000000e+00 3.0000000000000000e+00
0.0000000000000000e+00 5.0000000000000000e+00
-5.0000000000000000e-01 5.0000000000000000e-01
ITEM: ATOMS x y z radius
1.38896 0.987938 0 1
2.31202 2.26397 0 0.5
0.997238 2.98718 0 1
2.08995 4.38179 0 0.5
