ITEM: TIMESTEP
26000
ITEM: NUMBER OF ATOMS
3
ITEM: BOX BOUNDS ff fm pp
0.0000000000000000e+00 3.0000000000000000e+00
0.0000000000000000e+00 5.0000000000000000e+00
-5.0000000000000000e-01 5.0000000000000000e-01
ITEM: ATOMS x y z radius
0.978026 0.941718 0 1
2.49354 1.51769 0 0.5
1.90777 3.98474 0 1
