ITEM: TIMESTEP
67000
ITEM: NUMBER OF ATOMS
5
ITEM: BOX BOUNDS ff fm pp
0.0000000000000000e+00 3.0000000000000000e+00
0.0000000000000000e+00 5.0000000000000000e+00
-5.0000000000000000e-01 5.0000000000000000e-01
ITEM: ATOMS x y z radius
2.19093 0.808837 0 1
0.785704 2.21154 0 1
2.3526 3.22512 0 0.5
1.08339 4.17738 0 1
2.54357 4.5079 0 0.5
