ITEM: TIMESTEP
136000
ITEM: NUMBER OF ATOMS
12
ITEM: BOX BOUNDS ff fm pp
0.0000000000000000e+00 4.0000000000000000e+00
0.0000000000000000e+00 9.0000000000000000e+00
-5.0000000000000000e-01 5.0000000000000000e-01
ITEM: ATOMS x y z radius
0.49492 0.496518 0 0.5
1.49455 0.474991 0 0.5
3.009 0.978445 0 1
1.59249 1.46876 0 0.5
0.983287 2.83777 0 1
3.51701 2.38874 0 0.5
2.78846 3.6987 0 1
0.994537 4.83686 0 1
2.45853 5.16156 0 0.5
3.50167 5.0262 0 0.5
3.0039 6.55845 0 1
1.01569 6.83619 0 1
