ITEM: TIMESTEP
69500
ITEM: NUMBER OF ATOMS
5
ITEM: BOX BOUNDS ff fm pp
0.0000000000000000e+00 3.0000000000000000e+00
0.0000000000000000e+00 5.0000000000000000e+00
-5.0000000000000000e-01 5.0000000000000000e-01
ITEM: ATOMS x y z radius
2.1887 0.805394 0 1
0.797589 2.22287 0 1
2.37934 3.4151 0 0.5
1.08911 4.18995 0 1
2.5468 4.53834 0 0.5
