ITEM: TIMESTEP
8500
ITEM: NUMBER OF ATOMS
2
ITEM: BOX BOUNDS ff fm pp
0.0000000000000000e+00 3.0000000000000000e+00
0.0000000000000000e+00 5.0000000000000000e+00
-5.0000000000000000e-01 5.0000000000000000e-01
ITEM: ATOMS x y z radius
0.519068 1.79159 0 0.5
1.00149 3.64431 0 1
