ITEM: TIMESTEP
92000
ITEM: NUMBER OF ATOMS
12
ITEM: BOX BOUNDS ff fm pp
0.0000000000000000e+00 4.0000000000000000e+00
0.0000000000000000e+00 9.0000000000000000e+00
-5.0000000000000000e-01 5.0000000000000000e-01
ITEM: ATOMS x y z radius
0.477635 0.520997 0 0.5
1.47311 0.449967 0 0.5
3.03103 0.981106 0 1
1.60365 1.43825 0 0.5
0.960997 2.79075 0 1
3.52519 2.39422 0 0.5
2.73807 3.72292 0 1
1.03843 4.81039 0 1
2.25069 5.75239 0 0.5
3.46352 5.50302 0 0.5
0.984106 6.84536 0 1
3.00242 7.07003 0 1
