ITEM: TIMESTEP
196000
ITEM: NUMBER OF ATOMS
12
ITEM: BOX BOUNDS ff fm pp
0.0000000000000000e+00 4.0000000000000000e+00
0.0000000000000000e+00 9.0000000000000000e+00
-5.0000000000000000e-01 5.0000000000000000e-01
ITEM: ATOMS x y z radius
0.494153 0.496879 0 0.5
1.49351 0.472484 0 0.5
3.01166 0.975949 0 1
1.59504 1.46574 0 0.5
0.98178 2.83281 0 1
3.51824 2.38665 0 0.5
2.78601 3.69452 0 1
0.992083 4.83179 0 1
2.45586 5.15702 0 0.5
3.50217 5.01231 0 0.5
3.00568 6.55184 0 1
1.02528 6.83091 0 1
