ITEM: TIMESTEP
132000
ITEM: NUMBER OF ATOMS
12
ITEM: BOX BOUNDS ff fm pp
0.0000000000000000e+00 4.0000000000000000e+00
0.0000000000000000e+00 9.0000000000000000e+00
-5.0000000000000000e-01 5.0000000000000000e-01
ITEM: ATOMS x y z radius
0.493679 0.497343 0 0.5
1.49303 0.469267 0 0.5
3.01164 0.976132 0 1
1.59374 1.46233 0 0.5
0.981051 2.82942 0 1
3.52003 2.38552 0 0.5
2.78456 3.69128 0 1
0.989256 4.82816 0 1
2.45316 5.15386 0 0.5
3.49939 5.01254 0 0.5
3.00653 6.5479 0 1
1.00058 6.82761 0 1
