ITEM: TIMESTEP
25000
ITEM: NUMBER OF ATOMS
3
ITEM: BOX BOUNDS ff fm pp
0.0000000000000000e+00 3.0000000000000000e+00
0.0000000000000000e+00 5.0000000000000000e+00
-5.0000000000000000e-01 5.0000000000000000e-01
ITEM: ATOMS x y z radius
1.00036 0.873267 0 1
2.50646 1.15886 0 0.5
1.95195 4.02506 0 1
