ITEM: TIMESTEP
24500
ITEM: NUMBER OF ATOMS
3
ITEM: BOX BOUNDS ff fm pp
0.0000000000000000e+00 3.0000000000000000e+00
0.0000000000000000e+00 5.0000000000000000e+00
-5.0000000000000000e-01 5.0000000000000000e-01
ITEM: ATOMS x y z radius
0.999693 0.968007 0 1
2.58637 0.963727 0 0.5
1.97404 4.05292 0 1
