ITEM: TIMESTEP
59500
ITEM: NUMBER OF ATOMS
4
ITEM: BOX BOUNDS ff fm pp
0.0000000000000000e+00 3.0000000000000000e+00
0.0000000000000000e+00 5.0000000000000000e+00
-5.0000000000000000e-01 5.0000000000000000e-01
ITEM: ATOMS x y z radius
2.00318 0.985463 0 1
2.46782 2.40944 0 0.5
0.996194 2.71466 0 1
1.98873 4.29242 0 0.5
