ITEM: TIMESTEP
61000
ITEM: NUMBER OF ATOMS
5
ITEM: BOX BOUNDS ff fm pp
0.0000000000000000e+00 3.0000000000000000e+00
0.0000000000000000e+00 5.0000000000000000e+00
-5.0000000000000000e-01 5.0000000000000000e-01
ITEM: ATOMS x y z radius
2.10625 0.79538 0 1
2.59704 2.35899 0 0.5
1.10568 2.49367 0 1
0.563477 4.417 0 1
2.11981 4.41213 0 0.5
