ITEM: TIMESTEP
25500
ITEM: NUMBER OF ATOMS
3
ITEM: BOX BOUNDS ff fm pp
0.0000000000000000e+00 3.0000000000000000e+00
0.0000000000000000e+00 5.0000000000000000e+00
-5.0000000000000000e-01 5.0000000000000000e-01
ITEM: ATOMS x y z radius
0.983623 0.90145 0 1
2.54439 1.33953 0 0.5
1.92986 4.00393 0 1
