ITEM: TIMESTEP
66500
ITEM: NUMBER OF ATOMS
5
ITEM: BOX BOUNDS ff fm pp
0.0000000000000000e+00 3.0000000000000000e+00
0.0000000000000000e+00 5.0000000000000000e+00
-5.0000000000000000e-01 5.0000000000000000e-01
ITEM: ATOMS x y z radius
2.18875 0.81106 0 1
0.783803 2.21459 0 1
2.34463 3.14034 0 0.5
1.12354 4.17344 0 1
2.57389 4.54087 0 0.5
