ITEM: TIMESTEP
124000
ITEM: NUMBER OF ATOMS
12
ITEM: BOX BOUNDS ff fm pp
0.0000000000000000e+00 4.0000000000000000e+00
0.0000000000000000e+00 9.0000000000000000e+00
-5.0000000000000000e-01 5.0000000000000000e-01
ITEM: ATOMS x y z radius
0.494441 0.497018 0 0.5
1.49375 0.4784 0 0.5
3.01157 0.98098 0 1
1.59511 1.47194 0 0.5
0.989351 2.84284 0 1
3.51087 2.39451 0 0.5
2.79169 3.70991 0 1
0.991149 4.84186 0 1
2.45269 5.17488 0 0.5
3.51111 5.0779 0 0.5
3.00254 6.571 0 1
1.00017 6.84339 0 1
