ITEM: TIMESTEP
51000
ITEM: NUMBER OF ATOMS
4
ITEM: BOX BOUNDS ff fm pp
0.0000000000000000e+00 3.0000000000000000e+00
0.0000000000000000e+00 5.0000000000000000e+00
-5.0000000000000000e-01 5.0000000000000000e-01
ITEM: ATOMS x y z radius
2.00911 0.986366 0 1
2.48752 2.44096 0 0.5
1.00593 2.81426 0 1
2.42991 4.19805 0 0.5
