ITEM: TIMESTEP
52000
ITEM: NUMBER OF ATOMS
7
ITEM: BOX BOUNDS ff fm pp
0.0000000000000000e+00 4.0000000000000000e+00
0.0000000000000000e+00 9.0000000000000000e+00
-5.0000000000000000e-01 5.0000000000000000e-01
ITEM: ATOMS x y z radius
1.77464 0.493577 0 0.5
1.44157 2.06777 0 0.5
2.95972 1.41211 0 1
0.574895 2.69162 0 0.5
3.50241 3.68079 0 0.5
1.0172 4.7064 0 1
2.96817 5.6125 0 1
