ITEM: TIMESTEP
57500
ITEM: NUMBER OF ATOMS
4
ITEM: BOX BOUNDS ff fm pp
0.0000000000000000e+00 3.0000000000000000e+00
0.0000000000000000e+00 5.0000000000000000e+00
-5.0000000000000000e-01 5.0000000000000000e-01
ITEM: ATOMS x y z radius
2.00759 0.981439 0 1
0.981643 2.69779 0 1
2.50585 2.52372 0 0.5
1.81396 4.09781 0 0.5
