ITEM: TIMESTEP
24000
ITEM: NUMBER OF ATOMS
3
ITEM: BOX BOUNDS ff fm pp
0.0000000000000000e+00 3.0000000000000000e+00
0.0000000000000000e+00 5.0000000000000000e+00
-5.0000000000000000e-01 5.0000000000000000e-01
ITEM: ATOMS x y z radius
2.52086 0.758475 0 0.5
0.984976 1.19488 0 1
1.99613 4.08283 0 1
