ITEM: TIMESTEP
148000
ITEM: NUMBER OF ATOMS
12
ITEM: BOX BOUNDS ff fm pp
0.0000000000000000e+00 4.0000000000000000e+00
0.0000000000000000e+00 9.0000000000000000e+00
-5.0000000000000000e-01 5.0000000000000000e-01
ITEM: ATOMS x y z radius
0.494491 0.497052 0 0.5
1.49387 0.473109 0 0.5
3.01082 0.976852 0 1
1.59419 1.46653 0 0.5
0.982718 2.83443 0 1
3.51749 2.38752 0 0.5
2.78677 3.69627 0 1
0.992781 4.83345 0 1
2.45661 5.15872 0 0.5
3.50357 5.01364 0 0.5
3.00482 6.55421 0 1
1.02406 6.83263 0 1
