ITEM: TIMESTEP
63500
ITEM: NUMBER OF ATOMS
5
ITEM: BOX BOUNDS ff fm pp
0.0000000000000000e+00 3.0000000000000000e+00
0.0000000000000000e+00 5.0000000000000000e+00
-5.0000000000000000e-01 5.0000000000000000e-01
ITEM: ATOMS x y z radius
2.20333 0.815046 0 1
0.764518 2.18466 0 1
2.29684 2.57912 0 0.5
1.03752 4.15496 0 1
2.5886 4.41118 0 0.5
