ITEM: TIMESTEP
500000
ITEM: NUMBER OF ATOMS
390
ITEM: BOX BOUNDS ff fm pp
0.0000000000000000e+00 1.0000000000000000e+01
0.0000000000000000e+00 5.3000000000000000e+01
-5.0000000000000000e-01 5.0000000000000000e-01
ITEM: ATOMS x y z radius
0.465611 0.44464 0 0.5
1.46328 0.455094 0 0.5
2.48004 0.22743 0 0.25
3.1913 0.463487 0 0.5
5.01143 0.449038 0 0.5
6.01067 0.476672 0 0.5
7.0579 0.448053 0 0.5
8.05532 0.450768 0 0.5
9.05327 0.446817 0 0.5
2.32341 0.959825 0 0.5
4.09981 0.880762 0 0.5
5.60563 1.11216 0 0.25
0.457808 1.44115 0 0.5
1.45568 1.45444 0 0.5
3.18545 1.46145 0 0.5
4.92756 1.44258 0 0.5
6.5595 1.31093 0 0.5
7.55789 1.31788 0 0.5
8.55644 1.3135 0 0.5
9.55346 1.30885 0 0.5
2.31786 1.95866 0 0.5
4.06122 1.93834 0 0.5
5.79062 1.94434 0 0.5
7.05381 2.18078 0 0.5
8.06243 2.18016 0 0.5
9.06309 2.18151 0 0.5
9.79416 2.01528 0 0.25
0.457251 2.43789 0 0.5
1.45599 2.46496 0 0.5
2.32004 2.96651 0 0.5
3.18095 2.4603 0 0.5
4.0581 2.93576 0 0.5
4.92471 2.44107 0 0.5
5.63564 2.67403 0 0.25
6.3524 2.89296 0 0.5
9.76326 2.51039 0 0.25
0.906342 3.03352 0 0.25
1.46936 3.52353 0 0.5
3.26406 3.53711 0 0.5
4.76556 3.17229 0 0.25
5.47487 3.40248 0 0.5
6.9044 3.40018 0 0.25
7.56044 3.04245 0 0.5
8.55942 3.04634 0 0.5
9.54184 3.22303 0 0.5
0.478107 3.64689 0 0.5
2.36342 3.96426 0 0.5
4.61091 3.90538 0 0.5
6.34216 3.89243 0 0.5
7.3323 4.01536 0 0.5
8.32733 4.0921 0 0.5
8.95354 3.68394 0 0.25
0.482681 4.64509 0 0.5
1.47895 4.52324 0 0.5
2.21365 4.69485 0 0.25
3.0535 4.25536 0 0.25
3.7758 4.45454 0 0.5
5.48068 4.3992 0 0.5
9.50199 4.2198 0 0.5
1.19384 5.32879 0 0.25
1.9965 5.40845 0 0.5
2.90284 4.98859 0 0.5
4.64716 4.94855 0 0.5
5.67428 5.37726 0 0.5
6.54877 4.86766 0 0.5
7.5395 4.99269 0 0.5
8.53543 5.06863 0 0.5
9.52292 5.21722 0 0.5
0.472685 5.64351 0 0.5
2.81099 5.98621 0 0.5
3.78625 5.45374 0 0.5
4.78803 5.93793 0 0.5
6.54635 5.86494 0 0.5
7.53654 5.99924 0 0.5
9.26894 5.92132 0 0.25
9.77572 5.92123 0 0.25
1.33161 6.15141 0 0.5
2.08018 6.15173 0 0.25
3.69645 6.44822 0 0.5
4.43087 6.597 0 0.25
5.68713 6.37411 0 0.5
7.97175 6.62842 0 0.25
8.53412 6.06778 0 0.5
0.464193 6.6445 0 0.5
1.36632 7.14775 0 0.5
2.32315 6.85907 0 0.5
3.07331 6.8644 0 0.25
4.99423 7.09148 0 0.5
6.84445 6.81659 0 0.5
8.62601 7.06222 0 0.5
9.52356 6.62553 0 0.5
0.476248 7.64273 0 0.5
2.98294 7.60866 0 0.5
3.96152 7.41029 0 0.5
4.63074 7.74511 0 0.25
5.98536 7.32605 0 0.5
6.70407 7.55373 0 0.25
7.66012 7.38973 0 0.5
8.31807 7.743 0 0.25
8.81287 7.78793 0 0.25
9.54178 7.62373 0 0.5
0.613175 8.3792 0 0.25
1.18792 7.87396 0 0.25
2.02722 7.89595 0 0.5
4.22625 8.37394 0 0.5
5.30955 8.06006 0 0.5
6.01199 8.31844 0 0.25
6.36841 7.96952 0 0.25
7.08014 8.2023 0 0.5
9.77879 8.3346 0 0.25
1.32692 8.60862 0 0.5
2.2927 8.85968 0 0.5
3.24818 8.57179 0 0.5
4.9972 9.00806 0 0.5
5.70177 8.72298 0 0.25
6.4165 8.94858 0 0.5
8.05027 8.43994 0 0.5
9.04867 8.49797 0 0.5
0.467408 9.11533 0 0.5
1.33883 9.60754 0 0.5
2.08702 9.57892 0 0.25
2.99134 9.57462 0 0.5
3.96229 9.33692 0 0.5
7.38646 9.18512 0 0.5
8.49835 9.33131 0 0.5
9.50219 9.38872 0 0.5
0.478845 10.115 0 0.5
4.73518 9.97136 0 0.5
5.73619 9.67902 0 0.5
6.70653 9.91719 0 0.5
7.45613 9.93014 0 0.25
7.94632 9.83713 0 0.25
8.38913 10.0719 0 0.25
8.96433 9.91679 0 0.25
1.34853 10.6068 0 0.5
2.29905 10.2963 0 0.5
3.04768 10.3229 0 0.25
3.79615 10.3217 0 0.5
4.46031 10.6665 0 0.25
5.47634 10.6426 0 0.5
6.64098 10.6642 0 0.25
7.38999 10.6754 0 0.5
8.11504 10.4882 0 0.25
8.78118 10.3808 0 0.25
9.53029 10.4068 0 0.5
0.486452 11.1137 0 0.5
1.20011 11.3415 0 0.25
2.09161 11.2735 0 0.5
3.07089 11.0722 0 0.5
4.09496 11.0086 0 0.25
4.76981 11.3473 0 0.5
6.18872 10.8746 0 0.25
6.71239 11.4102 0 0.5
8.55358 11.0942 0 0.5
9.50303 11.4047 0 0.5
2.20403 12.0131 0 0.25
3.84291 11.7152 0 0.5
5.73355 11.6083 0 0.5
7.70445 11.6231 0 0.5
0.461972 12.112 0 0.5
1.45742 12.0455 0 0.5
2.94036 12.1403 0 0.5
4.62585 12.3355 0 0.5
5.50921 12.5183 0 0.25
6.35373 12.3894 0 0.5
7.09074 12.0547 0 0.25
7.88543 12.3519 0 0.25
8.5872 12.0921 0 0.5
9.53521 12.404 0 0.5
0.476185 13.1109 0 0.5
1.12636 12.7185 0 0.25
2.15623 12.7601 0 0.5
2.95098 12.9306 0 0.25
3.72132 12.7619 0 0.5
5.12778 12.8902 0 0.25
5.79948 13.2207 0 0.5
7.27148 12.7799 0 0.5
8.2366 13.0372 0 0.5
8.97131 12.8956 0 0.25
1.4213 13.4356 0 0.5
2.37647 13.7344 0 0.5
3.37595 13.6998 0 0.5
4.53299 13.3458 0 0.5
6.57591 13.233 0 0.25
7.10933 13.7648 0 0.5
8.78265 13.5542 0 0.25
9.52133 13.4034 0 0.5
0.666982 14.0918 0 0.5
1.63487 14.4113 0 0.5
4.20091 14.2889 0 0.5
5.18566 14.1121 0 0.5
6.18405 14.1417 0 0.5
8.07287 14.0245 0 0.5
9.03828 14.277 0 0.5
9.76884 14.1106 0 0.25
1.23605 15.0464 0 0.25
2.89268 14.5898 0 0.5
5.69294 15.0099 0 0.5
6.57148 14.7901 0 0.25
7.34713 14.7349 0 0.5
8.31845 14.9931 0 0.5
9.75005 14.6102 0 0.25
0.486637 15.0741 0 0.5
1.08654 15.5235 0 0.25
2.15526 15.2648 0 0.5
2.9013 15.3451 0 0.25
3.71196 15.1605 0 0.5
4.71006 15.1877 0 0.5
6.40513 15.2676 0 0.25
6.89954 15.3481 0 0.25
9.32679 15.2326 0 0.5
0.492468 16.0729 0 0.5
1.58405 16.0843 0 0.5
2.60436 16.1596 0 0.5
3.22133 15.7286 0 0.25
3.68689 15.9128 0 0.25
4.389 16.1896 0 0.5
5.36034 15.9517 0 0.5
6.06767 15.6617 0 0.25
6.6765 16.115 0 0.5
7.59112 15.7047 0 0.5
8.55777 15.9652 0 0.5
9.52508 16.2137 0 0.5
0.271016 16.7918 0 0.25
3.48909 16.6359 0 0.5
5.96998 16.3884 0 0.25
7.10622 16.7342 0 0.25
7.85637 16.6992 0 0.5
1.03023 16.916 0 0.5
2.03155 16.9813 0 0.5
2.7855 16.8924 0 0.25
3.10145 17.2801 0 0.25
2.62755 17.4387 0 0.25
3.58352 17.4109 0 0.25
4.30495 17.2122 0 0.5
5.26797 16.9464 0 0.5
6.26071 17.0822 0 0.5
8.83138 16.9315 0 0.5
9.73624 16.9511 0 0.25
0.494648 17.7586 0 0.5
1.44022 17.5469 0 0.25
2.1066 17.9768 0 0.5
3.18432 17.7767 0 0.25
4.59188 17.9122 0 0.25
5.34835 17.9455 0 0.5
7.18597 17.4835 0 0.5
8.17191 17.6822 0 0.5
9.48563 17.6875 0 0.5
0.23394 18.4608 0 0.25
1.22311 18.4473 0 0.5
2.86246 18.1855 0 0.25
3.86114 18.1065 0 0.5
4.74803 18.3956 0 0.25
6.35935 18.0955 0 0.5
7.52559 18.4442 0 0.5
8.51641 18.6231 0 0.5
0.50919 19.1565 0 0.5
2.33849 18.9483 0 0.5
3.05057 18.6862 0 0.25
3.55909 18.7928 0 0.25
4.36952 18.7282 0 0.25
3.90623 19.1607 0 0.25
4.45731 19.2234 0 0.25
4.87461 18.8803 0 0.25
5.72662 18.8728 0 0.5
6.71404 19.0301 0 0.5
9.51666 18.6864 0 0.5
1.47264 19.4509 0 0.5
3.20429 19.4561 0 0.5
5.09442 19.6476 0 0.5
6.08468 19.8167 0 0.5
7.91516 19.4225 0 0.5
8.9935 19.5384 0 0.5
0.620137 20.15 0 0.5
1.36897 20.2148 0 0.25
2.34032 19.9663 0 0.5
3.25575 20.4539 0 0.5
4.11219 19.8941 0 0.5
5.51003 20.3048 0 0.25
7.07114 19.9879 0 0.5
8.44059 20.0657 0 0.25
9.60806 20.0088 0 0.25
0.256826 20.8158 0 0.25
1.02101 21.0709 0 0.5
1.75666 20.6274 0 0.25
2.4083 20.9999 0 0.5
4.0097 20.7204 0 0.25
4.82409 20.6074 0 0.5
6.05837 20.8188 0 0.5
7.92881 20.6632 0 0.5
9.02405 20.5631 0 0.5
9.769 20.4821 0 0.25
0.287448 21.3163 0 0.25
3.30038 21.4497 0 0.5
4.31236 21.4667 0 0.5
5.3456 21.52 0 0.5
6.19835 21.7135 0 0.25
7.02535 21.1043 0 0.5
8.50519 21.4844 0 0.5
9.52746 21.4959 0 0.5
0.618377 21.9991 0 0.5
1.75257 21.7692 0 0.5
2.30382 22.2805 0 0.25
2.93027 22.1582 0 0.25
6.77827 22.0019 0 0.25
7.59919 21.924 0 0.5
8.90047 22.1226 0 0.25
1.29014 22.3789 0 0.25
2.84783 22.9159 0 0.5
3.76642 22.3353 0 0.5
4.86849 22.3981 0 0.5
5.93533 22.4089 0 0.5
7.03652 22.8477 0 0.5
8.24775 22.7378 0 0.5
9.42007 22.716 0 0.5
0.560786 23.0811 0 0.5
1.82185 22.9413 0 0.5
3.47818 23.3726 0 0.25
4.28004 23.2576 0 0.5
5.41362 23.3633 0 0.25
6.1865 23.3828 0 0.5
0.265833 24.1834 0 0.25
1.27208 23.9585 0 0.5
2.07096 23.9797 0 0.25
2.8218 23.996 0 0.5
7.05469 23.9285 0 0.5
9.51828 23.8054 0 0.5
2.01311 24.5063 0 0.25
3.93223 24.2212 0 0.5
5.02145 24.2668 0 0.5
6.44524 24.57 0 0.25
8.18216 24.0487 0 0.5
9.03368 24.5121 0 0.25
0.570683 24.8812 0 0.5
2.10631 25.2693 0 0.5
3.28393 24.6349 0 0.25
5.55061 25.2107 0 0.5
6.99231 25.3086 0 0.5
8.08512 25.1413 0 0.5
3.25381 25.9264 0 0.5
4.55422 25.3096 0 0.5
9.46356 25.7573 0 0.5
9.52642 24.6147 0 0.25
0.57709 26.0537 0 0.5
1.57555 26.2045 0 0.5
6.30229 26.0315 0 0.5
8.09062 26.2197 0 0.5
9.77126 26.7498 0 0.25
0.6785 26.7898 0 0.25
7.22399 26.7968 0 0.5
2.00836 27.4333 0 0.5
4.89698 26.9945 0 0.5
9.28795 27.5592 0 0.5
0.44726 27.6124 0 0.5
4.58807 28.2274 0 0.5
1.42483 29.0201 0 0.5
6.85943 28.1319 0 0.5
9.31151 28.8163 0 0.5
5.9064 30.8824 0 0.25
3.58904 30.9563 0 0.5
0.344941 32.8963 0 0.25
5.13907 31.9212 0 0.5
9.62509 30.9594 0 0.25
1.32683 33.5299 0 0.5
3.49809 35.7616 0 0.25
6.05612 35.3828 0 0.5
5.30336 36.5976 0 0.25
7.3128 35.88 0 0.25
1.38744 37.4779 0 0.5
8.94243 37.0043 0 0.5
1.45448 39.0414 0 0.25
9.04154 38.1384 0 0.5
0.560687 40.1169 0 0.25
2.4468 39.0069 0 0.5
6.25666 39.1489 0 0.25
3.39592 39.7239 0 0.5
8.40731 40.3961 0 0.5
6.54712 41.023 0 0.5
8.30009 41.1756 0 0.25
3.75211 43.8076 0 0.5
6.60728 44.1422 0 0.5
8.08855 43.9632 0 0.5
4.71562 45.1123 0 0.5
0.666845 45.588 0 0.5
3.83549 45.9651 0 0.25
2.9216 47.1746 0 0.5
7.49012 47.0288 0 0.5
0.958443 50.2123 0 0.5
6.43749 50.1857 0 0.25
2.26696 51.6202 0 0.25
