ITEM: TIMESTEP
42000
ITEM: NUMBER OF ATOMS
4
ITEM: BOX BOUNDS ff fm pp
0.0000000000000000e+00 3.0000000000000000e+00
0.0000000000000000e+00 5.0000000000000000e+00
-5.0000000000000000e-01 5.0000000000000000e-01
ITEM: ATOMS x y z radius
1.01653 0.970812 0 1
2.27973 2.02377 0 0.5
0.961521 2.96347 0 1
2.51862 4.06791 0 0.5
