ITEM: TIMESTEP
0
ITEM: NUMBER OF ATOMS
0
ITEM: BOX BOUNDS pp pp pp
-5.0000000000000000e-01 5.0000000000000000e-01
-1.0000000000000000e+01 1.0000000000000000e+01
-1.0000000000000000e-02 1.0000000000000000e-02
ITEM: ATOMS x y z
