ITEM: TIMESTEP
47500
ITEM: NUMBER OF ATOMS
4
ITEM: BOX BOUNDS ff fm pp
0.0000000000000000e+00 3.0000000000000000e+00
0.0000000000000000e+00 5.0000000000000000e+00
-5.0000000000000000e-01 5.0000000000000000e-01
ITEM: ATOMS x y z radius
1.62765 0.992757 0 1
2.3733 2.29202 0 0.5
0.985218 2.97999 0 1
2.0553 4.18157 0 0.5
