ITEM: TIMESTEP
17000
ITEM: NUMBER OF ATOMS
2
ITEM: BOX BOUNDS ff fm pp
0.0000000000000000e+00 3.0000000000000000e+00
0.0000000000000000e+00 5.0000000000000000e+00
-5.0000000000000000e-01 5.0000000000000000e-01
ITEM: ATOMS x y z radius
1.82396 1.36397 0 0.5
1.03191 3.20987 0 1
