ITEM: TIMESTEP
100000
ITEM: NUMBER OF ATOMS
89
ITEM: BOX BOUNDS ff fm pp
0.0000000000000000e+00 1.0000000000000000e+01
0.0000000000000000e+00 5.3000000000000000e+01
-5.0000000000000000e-01 5.0000000000000000e-01
ITEM: ATOMS x y z radius
9.10906 0.478553 0 0.5
1.15946 1.02668 0 0.25
2.15233 1.22171 0 0.5
3.47013 0.458128 0 0.5
4.49648 0.420379 0 0.5
7.91821 0.42789 0 0.5
9.38272 1.62466 0 0.5
0.549914 1.73342 0 0.5
1.63148 2.14892 0 0.5
3.18558 1.5111 0 0.5
4.38448 1.50323 0 0.25
6.60058 1.67321 0 0.5
7.81236 1.39871 0 0.5
8.4162 1.82726 0 0.25
0.5138 2.91316 0 0.5
4.35702 2.55669 0 0.5
1.43142 3.55207 0 0.5
2.63101 2.46204 0 0.5
5.6989 2.92554 0 0.5
7.71832 3.2005 0 0.25
8.11308 2.69696 0 0.25
8.43534 3.48194 0 0.5
9.34059 3.04888 0 0.5
1.04522 4.6839 0 0.25
4.70525 3.93999 0 0.5
6.42371 5.06144 0 0.25
7.85758 4.44827 0 0.5
9.15689 4.49385 0 0.5
3.36086 4.46081 0 0.5
5.53481 4.29245 0 0.25
7.35957 5.30357 0 0.25
4.79849 5.40318 0 0.5
8.71681 5.97998 0 0.5
9.51614 5.37262 0 0.25
9.70008 6.94706 0 0.25
0.928913 6.54445 0 0.5
6.13774 6.17465 0 0.5
9.13256 7.64986 0 0.5
2.03404 10.2922 0 0.25
0.465591 10.2159 0 0.25
9.11514 8.37898 0 0.25
4.82256 10.1186 0 0.25
5.75924 9.37482 0 0.5
7.60111 10.7585 0 0.5
3.16368 10.5622 0 0.5
8.96809 11.6958 0 0.25
0.722613 11.1468 0 0.5
4.19721 10.8599 0 0.5
5.88796 10.7533 0 0.5
2.95105 11.9039 0 0.5
3.75081 12.6365 0 0.5
4.74433 11.9299 0 0.5
2.64032 12.8828 0 0.5
5.70759 14.4143 0 0.5
3.00036 15.9019 0 0.25
8.27689 15.8474 0 0.5
8.66739 16.7253 0 0.25
2.27018 19.6731 0 0.5
6.59279 19.9506 0 0.25
6.13274 22.6429 0 0.5
8.40671 26.7801 0 0.5
1.91322 30.0491 0 0.5
0.49021 31.0557 0 0.5
9.09564 32.7548 0 0.5
8.26447 35.2354 0 0.5
5.16051 37.1332 0 0.5
6.03269 39.7148 0 0.5
7.48825 39.2318 0 0.25
5.99301 41.7468 0 0.5
8.12335 42.2809 0 0.5
1.7518 47.3481 0 0.5
1.18251 49.4924 0 0.5
2.90153 49.2508 0 0.5
4.5899 47.4272 0 0.25
4.33994 49.5616 0 0.5
7.29541 49.8735 0 0.5
8.95443 49.9856 0 0.25
4.15437 50.3227 0 0.25
5.77944 50.8474 0 0.5
6.78555 51.1325 0 0.5
1.13413 51.7059 0 0.5
1.96564 51.1514 0 0.5
3.34098 50.8134 0 0.5
3.63208 51.6811 0 0.25
5.1245 51.7461 0 0.5
7.99236 52.1385 0 0.5
9.0558 50.8132 0 0.5
5.97749 51.8415 0 0.25
6.91283 52.264 0 0.5
