ITEM: TIMESTEP
120000
ITEM: NUMBER OF ATOMS
12
ITEM: BOX BOUNDS ff fm pp
0.0000000000000000e+00 4.0000000000000000e+00
0.0000000000000000e+00 9.0000000000000000e+00
-5.0000000000000000e-01 5.0000000000000000e-01
ITEM: ATOMS x y z radius
0.493497 0.500505 0 0.5
1.49309 0.465363 0 0.5
3.01381 0.978524 0 1
1.59359 1.45843 0 0.5
0.977505 2.82407 0 1
3.51514 2.39144 0 0.5
2.77668 3.69556 0 1
0.989371 4.82446 0 1
2.44971 5.16035 0 0.5
3.50652 5.05254 0 0.5
3.00726 6.57674 0 1
1.00237 6.82376 0 1
