ITEM: TIMESTEP
49000
ITEM: NUMBER OF ATOMS
4
ITEM: BOX BOUNDS ff fm pp
0.0000000000000000e+00 3.0000000000000000e+00
0.0000000000000000e+00 5.0000000000000000e+00
-5.0000000000000000e-01 5.0000000000000000e-01
ITEM: ATOMS x y z radius
1.79429 0.986828 0 1
2.5188 2.349 0 0.5
0.986715 2.92396 0 1
2.38629 4.20364 0 0.5
