ITEM: TIMESTEP
57000
ITEM: NUMBER OF ATOMS
4
ITEM: BOX BOUNDS ff fm pp
0.0000000000000000e+00 3.0000000000000000e+00
0.0000000000000000e+00 5.0000000000000000e+00
-5.0000000000000000e-01 5.0000000000000000e-01
ITEM: ATOMS x y z radius
2.01146 0.979834 0 1
0.979072 2.69291 0 1
2.51256 2.54461 0 0.5
1.77027 4.0429 0 0.5
