ITEM: TIMESTEP
0
ITEM: NUMBER OF ATOMS
0
ITEM: BOX BOUNDS ff fm pp
0.0000000000000000e+00 1.0000000000000000e+02
0.0000000000000000e+00 5.0000000000000000e+01
-5.0000000000000000e-01 5.0000000000000000e-01
ITEM: ATOMS id type xs ys zs
ITEM: TIMESTEP
250
ITEM: NUMBER OF ATOMS
571
ITEM: BOX BOUNDS ff fm pp
0.0000000000000000e+00 1.0000000000000000e+02
0.0000000000000000e+00 5.0000000000000000e+01
-5.0000000000000000e-01 5.0000000000000000e-01
ITEM: ATOMS id type xs ys zs
1 1 0.250137 0.67973 0.5
2 1 0.303487 0.666467 0.5
3 1 0.155429 0.6283 0.5
4 1 0.697397 0.665766 0.5
5 1 0.035222 0.642263 0.5
6 1 0.434972 0.687882 0.5
7 1 0.714307 0.688612 0.5
8 1 0.432889 0.653187 0.5
9 1 0.777144 0.686702 0.5
10 1 0.790455 0.625453 0.5
11 1 0.690401 0.632801 0.5
12 1 0.41383 0.633294 0.5
13 1 0.0223253 0.688782 0.5
14 1 0.0322023 0.611069 0.5
15 1 0.880459 0.657883 0.5
16 1 0.275825 0.616779 0.5
17 1 0.693848 0.685866 0.5
18 1 0.085582 0.674452 0.5
19 1 0.0284843 0.684019 0.5
20 1 0.919737 0.669528 0.5
21 1 0.126685 0.687482 0.5
22 1 0.543243 0.638306 0.5
23 1 0.254014 0.66805 0.5
24 1 0.56136 0.65099 0.5
25 1 0.151394 0.599944 0.5
26 1 0.0642553 0.662179 0.5
27 1 0.0484657 0.58615 0.5
28 1 0.100182 0.687377 0.5
29 1 0.948621 0.682527 0.5
30 1 0.335139 0.669118 0.5
31 1 0.839854 0.685193 0.5
32 1 0.587246 0.632507 0.5
33 1 0.323652 0.590815 0.5
34 1 0.379771 0.686158 0.5
35 1 0.0147747 0.653568 0.5
36 1 0.663543 0.591392 0.5
37 1 0.593043 0.666284 0.5
38 1 0.942646 0.621839 0.5
39 1 0.164809 0.671132 0.5
40 1 0.103597 0.600085 0.5
41 1 0.0290208 0.639921 0.5
42 1 0.664472 0.687118 0.5
43 1 0.578325 0.682306 0.5
44 1 0.885724 0.630598 0.5
45 1 0.859272 0.661764 0.5
46 1 0.0499964 0.608902 0.5
47 1 0.939885 0.588824 0.5
48 1 0.913823 0.680438 0.5
49 1 0.668839 0.682541 0.5
50 1 0.242516 0.663569 0.5
51 1 0.498074 0.609709 0.5
52 1 0.867549 0.6554 0.5
53 1 0.0862556 0.601083 0.5
54 1 0.0351055 0.680986 0.5
55 1 0.527796 0.661015 0.5
56 1 0.519736 0.677753 0.5
57 1 0.75928 0.671709 0.5
58 1 0.326287 0.687888 0.5
59 1 0.242855 0.684986 0.5
60 1 0.275688 0.671582 0.5
61 1 0.0236794 0.614876 0.5
62 1 0.97206 0.639638 0.5
63 1 0.797007 0.683806 0.5
64 1 0.361652 0.68609 0.5
65 1 0.237398 0.677529 0.5
66 1 0.69784 0.653437 0.5
67 1 0.121783 0.618951 0.5
68 1 0.108609 0.645801 0.5
69 1 0.627956 0.609117 0.5
70 1 0.822347 0.62741 0.5
71 1 0.755175 0.584686 0.5
72 1 0.316184 0.638355 0.5
73 1 0.215207 0.662498 0.5
74 1 0.551335 0.638557 0.5
75 1 0.305846 0.677992 0.5
76 1 0.0442442 0.685712 0.5
77 1 0.173108 0.647521 0.5
78 1 0.487519 0.6779 0.5
79 1 0.788209 0.648774 0.5
80 1 0.80466 0.686496 0.5
81 1 0.253802 0.638041 0.5
82 1 0.494242 0.652517 0.5
83 1 0.829519 0.589458 0.5
84 1 0.771317 0.642171 0.5
85 1 0.231665 0.64147 0.5
86 1 0.191088 0.674232 0.5
87 1 0.782693 0.672929 0.5
88 1 0.881054 0.678434 0.5
89 1 0.738961 0.601606 0.5
90 1 0.119986 0.5882 0.5
91 1 0.0506448 0.68358 0.5
92 1 0.527526 0.685335 0.5
93 1 0.771195 0.674666 0.5
94 1 0.620874 0.685602 0.5
95 1 0.26572 0.613166 0.5
96 1 0.415754 0.585348 0.5
97 1 0.0941864 0.649561 0.5
98 1 0.392844 0.683692 0.5
99 1 0.221829 0.679907 0.5
100 1 0.482826 0.642053 0.5
101 1 0.196535 0.684691 0.5
102 1 0.332313 0.648103 0.5
103 1 0.0763227 0.681265 0.5
104 1 0.132417 0.628859 0.5
105 1 0.358304 0.656357 0.5
106 1 0.335869 0.686 0.5
107 1 0.0807586 0.604391 0.5
108 1 0.852385 0.628745 0.5
109 1 0.0514024 0.596635 0.5
110 1 0.828496 0.621586 0.5
111 1 0.638129 0.688022 0.5
112 1 0.0509289 0.639642 0.5
113 1 0.0182345 0.677808 0.5
114 1 0.380264 0.655172 0.5
115 1 0.987751 0.640927 0.5
116 1 0.439774 0.626829 0.5
117 1 0.459394 0.645507 0.5
118 1 0.454506 0.659932 0.5
119 1 0.18664 0.682641 0.5
120 1 0.175191 0.636273 0.5
121 1 0.89364 0.683754 0.5
122 1 0.809191 0.662257 0.5
123 1 0.848629 0.679031 0.5
124 1 0.209244 0.649881 0.5
125 1 0.7676 0.684736 0.5
126 1 0.829517 0.687469 0.5
127 1 0.398765 0.687892 0.5
128 1 0.409929 0.627362 0.5
129 1 0.632496 0.674403 0.5
130 1 0.147759 0.682201 0.5
131 1 0.294713 0.675267 0.5
132 1 0.870297 0.68931 0.5
133 1 0.533667 0.685204 0.5
134 1 0.282334 0.679102 0.5
135 1 0.749488 0.665557 0.5
136 1 0.768582 0.627189 0.5
137 1 0.652187 0.675802 0.5
138 1 0.60459 0.625883 0.5
139 1 0.78155 0.647462 0.5
140 1 0.819134 0.686824 0.5
141 1 0.336602 0.603332 0.5
142 1 0.781659 0.612921 0.5
143 1 0.160422 0.687685 0.5
144 1 0.51222 0.68446 0.5
145 1 0.365967 0.677796 0.5
146 1 0.955999 0.689366 0.5
147 1 0.353791 0.686526 0.5
148 1 0.349301 0.664991 0.5
149 1 0.537914 0.668127 0.5
150 1 0.150432 0.641793 0.5
151 1 0.39595 0.674448 0.5
152 1 0.22765 0.595367 0.5
153 1 0.172487 0.684416 0.5
154 1 0.81586 0.657914 0.5
155 1 0.900462 0.688294 0.5
156 1 0.631995 0.641486 0.5
157 1 0.168111 0.666644 0.5
158 1 0.114601 0.647772 0.5
159 1 0.0410793 0.646382 0.5
160 1 0.311985 0.590982 0.5
161 1 0.311176 0.614497 0.5
162 1 0.46193 0.649509 0.5
163 1 0.211354 0.685685 0.5
164 1 0.176952 0.68545 0.5
165 1 0.287711 0.684016 0.5
166 1 0.540281 0.683426 0.5
167 1 0.250603 0.634578 0.5
168 1 0.570127 0.660541 0.5
169 1 0.0838717 0.626771 0.5
170 1 0.58611 0.585092 0.5
171 1 0.664961 0.657576 0.5
172 1 0.192141 0.643311 0.5
173 1 0.88784 0.667178 0.5
174 1 0.396441 0.630414 0.5
175 1 0.875085 0.588344 0.5
176 1 0.591215 0.684222 0.5
177 1 0.649607 0.661163 0.5
178 1 0.292886 0.634536 0.5
179 1 0.344743 0.677936 0.5
180 1 0.0217307 0.666358 0.5
181 1 0.0235305 0.64875 0.5
182 1 0.677749 0.601121 0.5
183 1 0.071849 0.652677 0.5
184 1 0.916312 0.629907 0.5
185 1 0.545834 0.611346 0.5
186 1 0.803777 0.637401 0.5
187 1 0.82967 0.603302 0.5
188 1 0.598636 0.665765 0.5
189 1 0.980424 0.66086 0.5
190 1 0.846315 0.598822 0.5
191 1 0.27163 0.641282 0.5
192 1 0.389038 0.651078 0.5
193 1 0.811417 0.687474 0.5
194 1 0.985771 0.591158 0.5
195 1 0.0646405 0.644888 0.5
196 1 0.79284 0.597198 0.5
197 1 0.496178 0.665624 0.5
198 1 0.235363 0.669705 0.5
199 1 0.218877 0.633776 0.5
200 1 0.610957 0.689249 0.5
201 1 0.756356 0.684354 0.5
202 1 0.926542 0.652011 0.5
203 1 0.747144 0.689068 0.5
204 1 0.481904 0.604099 0.5
205 1 0.357137 0.589857 0.5
206 1 0.660139 0.650834 0.5
207 1 0.39099 0.628018 0.5
208 1 0.374183 0.632932 0.5
209 1 0.31774 0.688538 0.5
210 1 0.106197 0.671745 0.5
211 1 0.933338 0.66989 0.5
212 1 0.971704 0.680266 0.5
213 1 0.269429 0.686044 0.5
214 1 0.685758 0.671322 0.5
215 1 0.289214 0.673389 0.5
216 1 0.922762 0.604034 0.5
217 1 0.708957 0.654984 0.5
218 1 0.966942 0.591939 0.5
219 1 0.142473 0.634597 0.5
220 1 0.264238 0.648708 0.5
221 1 0.244731 0.677632 0.5
222 1 0.984909 0.665939 0.5
223 1 0.462436 0.670719 0.5
224 1 0.115924 0.673757 0.5
225 1 0.0440567 0.664109 0.5
226 1 0.253181 0.688014 0.5
227 1 0.886806 0.676521 0.5
228 1 0.81377 0.621021 0.5
229 1 0.16943 0.612517 0.5
230 1 0.710083 0.637861 0.5
231 1 0.155986 0.671411 0.5
232 1 0.603085 0.687695 0.5
233 1 0.0650721 0.677779 0.5
234 1 0.654952 0.659173 0.5
235 1 0.422162 0.677372 0.5
236 1 0.722511 0.61221 0.5
237 1 0.42001 0.656917 0.5
238 1 0.322954 0.606873 0.5
239 1 0.735926 0.688895 0.5
240 1 0.41455 0.65768 0.5
241 1 0.204755 0.688941 0.5
242 1 0.513893 0.64635 0.5
243 1 0.456926 0.629122 0.5
244 1 0.707339 0.689038 0.5
245 1 0.223137 0.628114 0.5
246 1 0.924156 0.684507 0.5
247 1 0.405759 0.687463 0.5
248 1 0.200179 0.675011 0.5
249 1 0.580305 0.609314 0.5
250 1 0.939647 0.671118 0.5
251 1 0.396189 0.643645 0.5
252 1 0.114714 0.689141 0.5
253 1 0.242148 0.635211 0.5
254 1 0.442903 0.684068 0.5
255 1 0.432156 0.635751 0.5
256 1 0.395059 0.598533 0.5
257 1 0.160513 0.662245 0.5
258 1 0.309216 0.663192 0.5
259 1 0.941845 0.682802 0.5
260 1 0.986882 0.654943 0.5
261 1 0.338105 0.614792 0.5
262 1 0.989952 0.684608 0.5
263 1 0.481665 0.681281 0.5
264 1 0.726325 0.646171 0.5
265 1 0.311447 0.680147 0.5
266 1 0.930914 0.6885 0.5
267 1 0.711652 0.592843 0.5
268 1 0.347765 0.63915 0.5
269 1 0.265309 0.668027 0.5
270 1 0.783077 0.689138 0.5
271 1 0.41015 0.679437 0.5
272 1 0.702854 0.683921 0.5
273 1 0.400398 0.598256 0.5
274 1 0.659323 0.689 0.5
275 1 0.107667 0.682454 0.5
276 1 0.609649 0.614644 0.5
277 1 0.456367 0.689344 0.5
278 1 0.309866 0.600309 0.5
279 1 0.379222 0.643186 0.5
280 1 0.873744 0.683867 0.5
281 1 0.717935 0.642711 0.5
282 1 0.168815 0.586998 0.5
283 1 0.518306 0.647378 0.5
284 1 0.680794 0.684966 0.5
285 1 0.108291 0.676656 0.5
286 1 0.825833 0.688719 0.5
287 1 0.867185 0.636898 0.5
288 1 0.597199 0.629958 0.5
289 1 0.654271 0.624804 0.5
290 1 0.270413 0.648926 0.5
291 1 0.923386 0.643235 0.5
292 1 0.543808 0.616058 0.5
293 1 0.0491518 0.670474 0.5
294 1 0.82626 0.647755 0.5
295 1 0.451443 0.603995 0.5
296 1 0.277576 0.648714 0.5
297 1 0.470571 0.688882 0.5
298 1 0.834945 0.633429 0.5
299 1 0.651651 0.613794 0.5
300 1 0.560714 0.689148 0.5
301 1 0.550249 0.67963 0.5
302 1 0.663025 0.641766 0.5
303 1 0.131076 0.620549 0.5
304 1 0.88486 0.682706 0.5
305 1 0.956261 0.645773 0.5
306 1 0.107847 0.588976 0.5
307 1 0.675573 0.647988 0.5
308 1 0.1364 0.670501 0.5
309 1 0.842905 0.625659 0.5
310 1 0.742077 0.676359 0.5
311 1 0.95181 0.658525 0.5
312 1 0.870064 0.678116 0.5
313 1 0.426386 0.682068 0.5
314 1 0.150611 0.686717 0.5
315 1 0.272056 0.68186 0.5
316 1 0.820339 0.588014 0.5
317 1 0.927964 0.59459 0.5
318 1 0.106275 0.663857 0.5
319 1 0.55874 0.630266 0.5
320 1 0.722169 0.665616 0.5
321 1 0.148976 0.67133 0.5
322 1 0.677967 0.624553 0.5
323 1 0.98579 0.688972 0.5
324 1 0.450096 0.687987 0.5
325 1 0.563741 0.675874 0.5
326 1 0.0569726 0.686583 0.5
327 1 0.666128 0.613265 0.5
328 1 0.971575 0.665236 0.5
329 1 0.736954 0.641352 0.5
330 1 0.891411 0.627392 0.5
331 1 0.68857 0.586163 0.5
332 1 0.726472 0.664465 0.5
333 1 0.962589 0.654755 0.5
334 1 0.0443816 0.607574 0.5
335 1 0.942521 0.598588 0.5
336 1 0.0283608 0.650784 0.5
337 1 0.462278 0.679569 0.5
338 1 0.911882 0.619903 0.5
339 1 0.824627 0.660983 0.5
340 1 0.723127 0.684514 0.5
341 1 0.623739 0.656801 0.5
342 1 0.370658 0.636772 0.5
343 1 0.121001 0.678709 0.5
344 1 0.0913085 0.673727 0.5
345 1 0.85228 0.641644 0.5
346 1 0.298802 0.68715 0.5
347 1 0.301952 0.595803 0.5
348 1 0.731057 0.679021 0.5
349 1 0.134451 0.685576 0.5
350 1 0.976531 0.686998 0.5
351 1 0.321336 0.664735 0.5
352 1 0.520752 0.631489 0.5
353 1 0.749052 0.626545 0.5
354 1 0.569663 0.627128 0.5
355 1 0.753397 0.639957 0.5
356 1 0.907194 0.6858 0.5
357 1 0.156581 0.587739 0.5
358 1 0.327861 0.640114 0.5
359 1 0.0935311 0.686125 0.5
360 1 0.489887 0.649868 0.5
361 1 0.845496 0.684287 0.5
362 1 0.573307 0.688407 0.5
363 1 0.557071 0.687934 0.5
364 1 0.212135 0.640626 0.5
365 1 0.954354 0.609339 0.5
366 1 0.230472 0.687144 0.5
367 1 0.344154 0.620322 0.5
368 1 0.963618 0.678198 0.5
369 1 0.434802 0.641174 0.5
370 1 0.103814 0.688862 0.5
371 1 0.831093 0.678247 0.5
372 1 0.511995 0.664928 0.5
373 1 0.379842 0.62999 0.5
374 1 0.0543571 0.667963 0.5
375 1 0.857578 0.627199 0.5
376 1 0.371866 0.678848 0.5
377 1 0.66705 0.669397 0.5
378 1 0.0836399 0.648783 0.5
379 1 0.760413 0.587965 0.5
380 1 0.801647 0.605961 0.5
381 1 0.913869 0.650498 0.5
382 1 0.384903 0.689051 0.5
383 1 0.817362 0.643958 0.5
384 1 0.845932 0.65875 0.5
385 1 0.861151 0.684405 0.5
386 1 0.9806 0.646779 0.5
387 1 0.286798 0.599286 0.5
388 1 0.505837 0.688671 0.5
389 1 0.384593 0.657229 0.5
390 1 0.873988 0.634931 0.5
391 1 0.262827 0.679655 0.5
392 1 0.638784 0.673374 0.5
393 1 0.280577 0.666295 0.5
394 1 0.686332 0.688927 0.5
395 1 0.269422 0.591523 0.5
396 1 0.675515 0.679466 0.5
397 1 0.428937 0.612844 0.5
398 1 0.347273 0.68599 0.5
399 1 0.140789 0.681787 0.5
400 1 0.0175008 0.607813 0.5
401 1 0.0408621 0.67787 0.5
402 1 0.208622 0.673436 0.5
403 1 0.500572 0.682622 0.5
404 1 0.249991 0.659043 0.5
405 1 0.0272164 0.674094 0.5
406 1 0.799886 0.664202 0.5
407 1 0.936427 0.681258 0.5
408 1 0.652647 0.685948 0.5
409 1 0.430426 0.678999 0.5
410 1 0.564696 0.685442 0.5
411 1 0.790343 0.683502 0.5
412 1 0.470853 0.626037 0.5
413 1 0.279422 0.682191 0.5
414 1 0.627103 0.67951 0.5
415 1 0.415446 0.681979 0.5
416 1 0.647008 0.598103 0.5
417 1 0.0969032 0.638639 0.5
418 1 0.502573 0.659065 0.5
419 1 0.602859 0.650558 0.5
420 1 0.138686 0.601447 0.5
421 1 0.528724 0.586892 0.5
422 1 0.444895 0.674675 0.5
423 1 0.275119 0.684872 0.5
424 1 0.331427 0.586528 0.5
425 1 0.583799 0.680749 0.5
426 1 0.77519 0.628773 0.5
427 1 0.887298 0.603461 0.5
428 1 0.669178 0.630343 0.5
429 1 0.468821 0.65217 0.5
430 1 0.226806 0.685247 0.5
431 1 0.235142 0.660879 0.5
432 1 0.94457 0.653435 0.5
433 1 0.696908 0.586479 0.5
434 1 0.496357 0.62839 0.5
435 1 0.494673 0.683208 0.5
436 1 0.208709 0.659524 0.5
437 1 0.801328 0.624778 0.5
438 1 0.130702 0.64599 0.5
439 1 0.561478 0.657135 0.5
440 1 0.530675 0.62627 0.5
441 1 0.42318 0.688838 0.5
442 1 0.290267 0.682125 0.5
443 1 0.885784 0.591665 0.5
444 1 0.489015 0.662982 0.5
445 1 0.927932 0.681429 0.5
446 1 0.645586 0.67951 0.5
447 1 0.63147 0.658738 0.5
448 1 0.314333 0.619611 0.5
449 1 0.752591 0.680594 0.5
450 1 0.402158 0.68905 0.5
451 1 0.428536 0.650215 0.5
452 1 0.59794 0.684495 0.5
453 1 0.368247 0.590941 0.5
454 1 0.150258 0.619076 0.5
455 1 0.731781 0.664496 0.5
456 1 0.850379 0.667265 0.5
457 1 0.110393 0.681014 0.5
458 1 0.238961 0.688998 0.5
459 1 0.0728593 0.678821 0.5
460 1 0.230625 0.674811 0.5
461 1 0.659228 0.661127 0.5
462 1 0.980081 0.672856 0.5
463 1 0.0754361 0.604898 0.5
464 1 0.387195 0.671954 0.5
465 1 0.198097 0.663088 0.5
466 1 0.215031 0.688353 0.5
467 1 0.35693 0.673433 0.5
468 1 0.110944 0.633569 0.5
469 1 0.208046 0.632906 0.5
470 1 0.95763 0.67263 0.5
471 1 0.381437 0.588086 0.5
472 1 0.257126 0.687538 0.5
473 1 0.0460101 0.630292 0.5
474 1 0.853321 0.682512 0.5
475 1 0.637676 0.640024 0.5
476 1 0.615709 0.680646 0.5
477 1 0.180802 0.683062 0.5
478 1 0.0894549 0.688196 0.5
479 1 0.587228 0.686825 0.5
480 1 0.341395 0.683884 0.5
481 1 0.155068 0.68364 0.5
482 1 0.109489 0.687013 0.5
483 1 0.684209 0.657226 0.5
484 1 0.763458 0.683919 0.5
485 1 0.476657 0.676064 0.5
486 1 0.594823 0.676636 0.5
487 1 0.37812 0.619221 0.5
488 1 0.185848 0.652229 0.5
489 1 0.0701633 0.686552 0.5
490 1 0.825313 0.671974 0.5
491 1 0.0823081 0.687994 0.5
492 1 0.224919 0.617738 0.5
493 1 0.361015 0.589854 0.5
494 1 0.0112775 0.685405 0.5
495 1 0.670939 0.68158 0.5
496 1 0.0567877 0.619873 0.5
497 1 0.581961 0.684375 0.5
498 1 0.061866 0.682256 0.5
499 1 0.726199 0.633045 0.5
500 1 0.248895 0.673169 0.5
501 1 0.177139 0.617012 0.5
502 1 0.560184 0.674819 0.5
503 1 0.56946 0.677548 0.5
504 1 0.344747 0.6453 0.5
505 1 0.642365 0.667227 0.5
506 1 0.165238 0.603404 0.5
507 1 0.28096 0.632302 0.5
508 1 0.233019 0.629531 0.5
509 1 0.978859 0.632786 0.5
510 1 0.519386 0.665195 0.5
511 1 0.203719 0.595 0.5
512 1 0.135848 0.639448 0.5
513 1 0.435609 0.681759 0.5
514 1 0.614532 0.625132 0.5
515 1 0.862707 0.674409 0.5
516 1 0.230264 0.653919 0.5
517 1 0.166949 0.681453 0.5
518 1 0.967321 0.665545 0.5
519 1 0.918806 0.685817 0.5
520 1 0.305696 0.666854 0.5
521 1 0.759348 0.623974 0.5
522 1 0.888278 0.686466 0.5
523 1 0.42793 0.667569 0.5
524 1 0.546069 0.688075 0.5
525 1 0.588328 0.647793 0.5
526 1 0.199432 0.643413 0.5
527 1 0.688747 0.602263 0.5
528 1 0.834908 0.688941 0.5
529 1 0.625137 0.619568 0.5
530 1 0.605885 0.670906 0.5
531 1 0.137586 0.631368 0.5
532 1 0.221113 0.611418 0.5
533 1 0.331009 0.681896 0.5
534 1 0.901928 0.66625 0.5
535 1 0.119811 0.613224 0.5
536 1 0.718588 0.67765 0.5
537 1 0.249584 0.613377 0.5
538 1 0.841427 0.666701 0.5
539 1 0.592849 0.63744 0.5
540 1 0.771474 0.688512 0.5
541 1 0.247129 0.688176 0.5
542 1 0.439855 0.673079 0.5
543 1 0.480082 0.632695 0.5
544 1 0.0585706 0.639684 0.5
545 1 0.433104 0.662457 0.5
546 1 0.939546 0.648731 0.5
547 1 0.163057 0.652237 0.5
548 1 0.760091 0.688099 0.5
549 1 0.954097 0.592777 0.5
550 1 0.642478 0.689264 0.5
551 1 0.12401 0.654527 0.5
552 1 0.629144 0.618975 0.5
553 1 0.503895 0.64266 0.5
554 1 0.866314 0.686167 0.5
555 1 0.0751046 0.658339 0.5
556 1 0.767632 0.665896 0.5
557 1 0.191516 0.68873 0.5
558 1 0.934892 0.655392 0.5
559 1 0.836345 0.657967 0.5
560 1 0.608292 0.662904 0.5
561 1 0.682488 0.602294 0.5
562 1 0.233999 0.686243 0.5
563 1 0.42946 0.624265 0.5
564 1 0.63139 0.689122 0.5
565 1 0.558386 0.638295 0.5
566 1 0.583016 0.651023 0.5
567 1 0.889334 0.644538 0.5
568 1 0.784063 0.590157 0.5
569 1 0.709892 0.681014 0.5
570 1 0.599335 0.603734 0.5
571 1 0.611449 0.602601 0.5
ITEM: TIMESTEP
500
ITEM: NUMBER OF ATOMS
571
ITEM: BOX BOUNDS ff fm pp
0.0000000000000000e+00 1.0000000000000000e+02
0.0000000000000000e+00 5.0000000000000000e+01
-5.0000000000000000e-01 5.0000000000000000e-01
ITEM: ATOMS id type xs ys zs
1 1 0.250137 0.674036 0.5
2 1 0.303487 0.65817 0.5
3 1 0.155429 0.615253 0.5
4 1 0.697397 0.657356 0.5
5 1 0.035222 0.630711 0.5
6 1 0.434972 0.684954 0.5
7 1 0.714307 0.686124 0.5
8 1 0.432889 0.642966 0.5
9 1 0.777144 0.683204 0.5
10 1 0.790455 0.612123 0.5
11 1 0.690401 0.620216 0.5
12 1 0.41383 0.620761 0.5
13 1 0.0223253 0.686412 0.5
14 1 0.0322023 0.596394 0.5
15 1 0.880459 0.648295 0.5
16 1 0.275825 0.602622 0.5
17 1 0.693848 0.682024 0.5
18 1 0.085582 0.667591 0.5
19 1 0.0284843 0.679526 0.5
20 1 0.919737 0.661747 0.5
21 1 0.126685 0.684347 0.5
22 1 0.543243 0.62631 0.5
23 1 0.254014 0.660015 0.5
24 1 0.56136 0.640488 0.5
25 1 0.151394 0.584312 0.5
26 1 0.0642553 0.653212 0.5
27 1 0.0484657 0.56941 0.5
28 1 0.100182 0.684191 0.5
29 1 0.948621 0.677577 0.5
30 1 0.335139 0.661265 0.5
31 1 0.839854 0.681099 0.5
32 1 0.587246 0.619891 0.5
33 1 0.323652 0.574441 0.5
34 1 0.379771 0.682432 0.5
35 1 0.0147747 0.643398 0.5
36 1 0.663543 0.575063 0.5
37 1 0.593043 0.657957 0.5
38 1 0.942646 0.608158 0.5
39 1 0.164809 0.663637 0.5
40 1 0.103597 0.584465 0.5
41 1 0.0290208 0.628104 0.5
42 1 0.664472 0.683807 0.5
43 1 0.578325 0.677294 0.5
44 1 0.885724 0.617784 0.5
45 1 0.859272 0.652735 0.5
46 1 0.0499964 0.594036 0.5
47 1 0.939885 0.572292 0.5
48 1 0.913823 0.674922 0.5
49 1 0.668839 0.677595 0.5
50 1 0.242516 0.654813 0.5
51 1 0.498074 0.594914 0.5
52 1 0.867549 0.645472 0.5
53 1 0.0862556 0.585546 0.5
54 1 0.0351055 0.675612 0.5
55 1 0.527796 0.651875 0.5
56 1 0.519736 0.671593 0.5
57 1 0.75928 0.66432 0.5
58 1 0.326287 0.684964 0.5
59 1 0.242855 0.68082 0.5
60 1 0.275688 0.66417 0.5
61 1 0.0236794 0.600544 0.5
62 1 0.97206 0.62779 0.5
63 1 0.797007 0.679244 0.5
64 1 0.361652 0.682337 0.5
65 1 0.237398 0.671318 0.5
66 1 0.69784 0.64325 0.5
67 1 0.121783 0.604996 0.5
68 1 0.108609 0.634662 0.5
69 1 0.627956 0.59427 0.5
70 1 0.822347 0.614274 0.5
71 1 0.755175 0.567832 0.5
72 1 0.316184 0.626365 0.5
73 1 0.215207 0.653579 0.5
74 1 0.551335 0.626589 0.5
75 1 0.305846 0.671886 0.5
76 1 0.0442442 0.681811 0.5
77 1 0.173108 0.636589 0.5
78 1 0.487519 0.671773 0.5
79 1 0.788209 0.637995 0.5
80 1 0.80466 0.68291 0.5
81 1 0.253802 0.626016 0.5
82 1 0.494242 0.64221 0.5
83 1 0.829519 0.572976 0.5
84 1 0.771317 0.630608 0.5
85 1 0.231665 0.629828 0.5
86 1 0.191088 0.667326 0.5
87 1 0.782693 0.66577 0.5
88 1 0.881054 0.67243 0.5
89 1 0.738961 0.586114 0.5
90 1 0.119986 0.57162 0.5
91 1 0.0506448 0.678947 0.5
92 1 0.527526 0.681294 0.5
93 1 0.771195 0.667848 0.5
94 1 0.620874 0.681659 0.5
95 1 0.26572 0.598679 0.5
96 1 0.415754 0.568545 0.5
97 1 0.0941864 0.638879 0.5
98 1 0.392844 0.679095 0.5
99 1 0.221829 0.674257 0.5
100 1 0.482826 0.630477 0.5
101 1 0.196535 0.680421 0.5
102 1 0.332313 0.637242 0.5
103 1 0.0763227 0.675965 0.5
104 1 0.132417 0.615868 0.5
105 1 0.358304 0.646559 0.5
106 1 0.335869 0.682211 0.5
107 1 0.0807586 0.589134 0.5
108 1 0.852385 0.615743 0.5
109 1 0.0514024 0.58073 0.5
110 1 0.828496 0.607881 0.5
111 1 0.638129 0.685172 0.5
112 1 0.0509289 0.627794 0.5
113 1 0.0182345 0.67166 0.5
114 1 0.380264 0.645214 0.5
115 1 0.987751 0.629224 0.5
116 1 0.439774 0.613634 0.5
117 1 0.459394 0.634333 0.5
118 1 0.454506 0.650635 0.5
119 1 0.18664 0.677725 0.5
120 1 0.175191 0.624056 0.5
121 1 0.89364 0.679176 0.5
122 1 0.809191 0.653301 0.5
123 1 0.848629 0.673167 0.5
124 1 0.209244 0.639239 0.5
125 1 0.7676 0.680481 0.5
126 1 0.829517 0.684328 0.5
127 1 0.398765 0.68497 0.5
128 1 0.409929 0.614221 0.5
129 1 0.632496 0.667532 0.5
130 1 0.147759 0.677158 0.5
131 1 0.294713 0.668571 0.5
132 1 0.870297 0.687372 0.5
133 1 0.533667 0.681115 0.5
134 1 0.282334 0.673256 0.5
135 1 0.749488 0.657112 0.5
136 1 0.768582 0.61403 0.5
137 1 0.652187 0.669217 0.5
138 1 0.60459 0.612595 0.5
139 1 0.78155 0.636522 0.5
140 1 0.819134 0.68338 0.5
141 1 0.336602 0.587984 0.5
142 1 0.781659 0.598412 0.5
143 1 0.160422 0.684653 0.5
144 1 0.51222 0.680111 0.5
145 1 0.365967 0.671646 0.5
146 1 0.955999 0.687483 0.5
147 1 0.353791 0.682952 0.5
148 1 0.349301 0.656456 0.5
149 1 0.537914 0.660105 0.5
150 1 0.150432 0.630188 0.5
151 1 0.39595 0.667586 0.5
152 1 0.22765 0.579358 0.5
153 1 0.172487 0.680053 0.5
154 1 0.81586 0.648331 0.5
155 1 0.900462 0.685603 0.5
156 1 0.631995 0.629846 0.5
157 1 0.168111 0.658376 0.5
158 1 0.114601 0.63687 0.5
159 1 0.0410793 0.635313 0.5
160 1 0.311985 0.574621 0.5
161 1 0.311176 0.600131 0.5
162 1 0.46193 0.638821 0.5
163 1 0.211354 0.681775 0.5
164 1 0.176952 0.681451 0.5
165 1 0.287711 0.679522 0.5
166 1 0.540281 0.678745 0.5
167 1 0.250603 0.62218 0.5
168 1 0.570127 0.651332 0.5
169 1 0.0838717 0.613571 0.5
170 1 0.58611 0.56827 0.5
171 1 0.664961 0.647946 0.5
172 1 0.192141 0.63188 0.5
173 1 0.88784 0.658997 0.5
174 1 0.396441 0.617582 0.5
175 1 0.875085 0.571775 0.5
176 1 0.591215 0.679794 0.5
177 1 0.649607 0.652046 0.5
178 1 0.292886 0.622134 0.5
179 1 0.344743 0.671817 0.5
180 1 0.0217307 0.658043 0.5
181 1 0.0235305 0.637968 0.5
182 1 0.677749 0.585588 0.5
183 1 0.071849 0.64239 0.5
184 1 0.916312 0.617023 0.5
185 1 0.545834 0.596696 0.5
186 1 0.803777 0.625307 0.5
187 1 0.82967 0.587952 0.5
188 1 0.598636 0.657354 0.5
189 1 0.980424 0.651698 0.5
190 1 0.846315 0.583096 0.5
191 1 0.27163 0.629618 0.5
192 1 0.389038 0.640586 0.5
193 1 0.811417 0.684334 0.5
194 1 0.985771 0.574811 0.5
195 1 0.0646405 0.633641 0.5
196 1 0.79284 0.581339 0.5
197 1 0.496178 0.65719 0.5
198 1 0.235363 0.661955 0.5
199 1 0.218877 0.621293 0.5
200 1 0.610957 0.687254 0.5
201 1 0.756356 0.67997 0.5
202 1 0.926542 0.641639 0.5
203 1 0.747144 0.686917 0.5
204 1 0.481904 0.588817 0.5
205 1 0.357137 0.573407 0.5
206 1 0.660139 0.640311 0.5
207 1 0.39099 0.614943 0.5
208 1 0.374183 0.620361 0.5
209 1 0.31774 0.686 0.5
210 1 0.106197 0.664362 0.5
211 1 0.933338 0.662173 0.5
212 1 0.971704 0.674706 0.5
213 1 0.269429 0.682272 0.5
214 1 0.685758 0.663862 0.5
215 1 0.289214 0.666317 0.5
216 1 0.922762 0.588747 0.5
217 1 0.708957 0.645 0.5
218 1 0.966942 0.575655 0.5
219 1 0.142473 0.622201 0.5
220 1 0.264238 0.63792 0.5
221 1 0.244731 0.671444 0.5
222 1 0.984909 0.657556 0.5
223 1 0.462436 0.663149 0.5
224 1 0.115924 0.666757 0.5
225 1 0.0440567 0.655437 0.5
226 1 0.253181 0.68516 0.5
227 1 0.886806 0.670089 0.5
228 1 0.81377 0.607262 0.5
229 1 0.16943 0.597972 0.5
230 1 0.710083 0.625817 0.5
231 1 0.155986 0.663967 0.5
232 1 0.603085 0.684668 0.5
233 1 0.0650721 0.671624 0.5
234 1 0.654952 0.649767 0.5
235 1 0.422162 0.671127 0.5
236 1 0.722511 0.597638 0.5
237 1 0.42001 0.647195 0.5
238 1 0.322954 0.59183 0.5
239 1 0.735926 0.686608 0.5
240 1 0.41455 0.648064 0.5
241 1 0.204755 0.686689 0.5
242 1 0.513893 0.635276 0.5
243 1 0.456926 0.616158 0.5
244 1 0.707339 0.686863 0.5
245 1 0.223137 0.615048 0.5
246 1 0.924156 0.680175 0.5
247 1 0.405759 0.684319 0.5
248 1 0.200179 0.668262 0.5
249 1 0.580305 0.594485 0.5
250 1 0.939647 0.66362 0.5
251 1 0.396189 0.632253 0.5
252 1 0.114714 0.687051 0.5
253 1 0.242148 0.622881 0.5
254 1 0.442903 0.67959 0.5
255 1 0.432156 0.623478 0.5
256 1 0.395059 0.582784 0.5
257 1 0.160513 0.653288 0.5
258 1 0.309216 0.654379 0.5
259 1 0.941845 0.677934 0.5
260 1 0.986882 0.644954 0.5
261 1 0.338105 0.600452 0.5
262 1 0.989952 0.680309 0.5
263 1 0.481665 0.675985 0.5
264 1 0.726325 0.635076 0.5
265 1 0.311447 0.674557 0.5
266 1 0.930914 0.685937 0.5
267 1 0.711652 0.576631 0.5
268 1 0.347765 0.627247 0.5
269 1 0.265309 0.659988 0.5
270 1 0.783077 0.687044 0.5
271 1 0.41015 0.673672 0.5
272 1 0.702854 0.679396 0.5
273 1 0.400398 0.582484 0.5
274 1 0.659323 0.686794 0.5
275 1 0.107667 0.677484 0.5
276 1 0.609649 0.600291 0.5
277 1 0.456367 0.687437 0.5
278 1 0.309866 0.584708 0.5
279 1 0.379222 0.63174 0.5
280 1 0.873744 0.679325 0.5
281 1 0.717935 0.631211 0.5
282 1 0.168815 0.570323 0.5
283 1 0.518306 0.636428 0.5
284 1 0.680794 0.680792 0.5
285 1 0.108291 0.670253 0.5
286 1 0.825833 0.686304 0.5
287 1 0.867185 0.624748 0.5
288 1 0.597199 0.617079 0.5
289 1 0.654271 0.61141 0.5
290 1 0.270413 0.638166 0.5
291 1 0.923386 0.631795 0.5
292 1 0.543808 0.601835 0.5
293 1 0.0491518 0.66286 0.5
294 1 0.82626 0.636851 0.5
295 1 0.451443 0.588705 0.5
296 1 0.277576 0.637928 0.5
297 1 0.470571 0.686585 0.5
298 1 0.834945 0.620909 0.5
299 1 0.651651 0.599364 0.5
300 1 0.560714 0.687063 0.5
301 1 0.550249 0.673912 0.5
302 1 0.663025 0.630158 0.5
303 1 0.131076 0.606745 0.5
304 1 0.88486 0.677809 0.5
305 1 0.956261 0.634631 0.5
306 1 0.107847 0.572456 0.5
307 1 0.675573 0.637112 0.5
308 1 0.1364 0.662892 0.5
309 1 0.842905 0.612349 0.5
310 1 0.742077 0.669892 0.5
311 1 0.95181 0.649027 0.5
312 1 0.870064 0.672038 0.5
313 1 0.426386 0.676988 0.5
314 1 0.150611 0.683226 0.5
315 1 0.272056 0.676722 0.5
316 1 0.820339 0.571419 0.5
317 1 0.927964 0.578518 0.5
318 1 0.106275 0.655145 0.5
319 1 0.55874 0.617419 0.5
320 1 0.722169 0.657182 0.5
321 1 0.148976 0.663871 0.5
322 1 0.677967 0.611134 0.5
323 1 0.98579 0.686743 0.5
324 1 0.450096 0.685117 0.5
325 1 0.563741 0.669305 0.5
326 1 0.0569726 0.683034 0.5
327 1 0.666128 0.598787 0.5
328 1 0.971575 0.65674 0.5
329 1 0.736954 0.629696 0.5
330 1 0.891411 0.614254 0.5
331 1 0.68857 0.569423 0.5
332 1 0.726472 0.655848 0.5
333 1 0.962589 0.644741 0.5
334 1 0.0443816 0.592592 0.5
335 1 0.942521 0.582844 0.5
336 1 0.0283608 0.640256 0.5
337 1 0.462278 0.673836 0.5
338 1 0.911882 0.606037 0.5
339 1 0.824627 0.651838 0.5
340 1 0.723127 0.680184 0.5
341 1 0.623739 0.647063 0.5
342 1 0.370658 0.62461 0.5
343 1 0.121001 0.672769 0.5
344 1 0.0913085 0.666722 0.5
345 1 0.85228 0.630022 0.5
346 1 0.298802 0.683854 0.5
347 1 0.301952 0.57983 0.5
348 1 0.731057 0.673154 0.5
349 1 0.134451 0.681624 0.5
350 1 0.976531 0.683632 0.5
351 1 0.321336 0.65616 0.5
352 1 0.520752 0.618767 0.5
353 1 0.749052 0.613323 0.5
354 1 0.569663 0.613964 0.5
355 1 0.753397 0.628144 0.5
356 1 0.907194 0.681933 0.5
357 1 0.156581 0.571123 0.5
358 1 0.327861 0.628319 0.5
359 1 0.0935311 0.682386 0.5
360 1 0.489887 0.639224 0.5
361 1 0.845496 0.679881 0.5
362 1 0.573307 0.685786 0.5
363 1 0.557071 0.685035 0.5
364 1 0.212135 0.628889 0.5
365 1 0.954354 0.594511 0.5
366 1 0.230472 0.683845 0.5
367 1 0.344154 0.606497 0.5
368 1 0.963618 0.672139 0.5
369 1 0.434802 0.629499 0.5
370 1 0.103814 0.68655 0.5
371 1 0.831093 0.672199 0.5
372 1 0.511995 0.656384 0.5
373 1 0.379842 0.617114 0.5
374 1 0.0543571 0.659914 0.5
375 1 0.857578 0.614042 0.5
376 1 0.371866 0.672941 0.5
377 1 0.66705 0.661593 0.5
378 1 0.0836399 0.638005 0.5
379 1 0.760413 0.571366 0.5
380 1 0.801647 0.590839 0.5
381 1 0.913869 0.639934 0.5
382 1 0.384903 0.686886 0.5
383 1 0.817362 0.632602 0.5
384 1 0.845932 0.649284 0.5
385 1 0.861151 0.680039 0.5
386 1 0.9806 0.635757 0.5
387 1 0.286798 0.5836 0.5
388 1 0.505837 0.686223 0.5
389 1 0.384593 0.64755 0.5
390 1 0.873988 0.62257 0.5
391 1 0.262827 0.673942 0.5
392 1 0.638784 0.6663 0.5
393 1 0.280577 0.657969 0.5
394 1 0.686332 0.686663 0.5
395 1 0.269422 0.575205 0.5
396 1 0.675515 0.673708 0.5
397 1 0.428937 0.598328 0.5
398 1 0.347273 0.682197 0.5
399 1 0.140789 0.676629 0.5
400 1 0.0175008 0.592852 0.5
401 1 0.0408621 0.671736 0.5
402 1 0.208622 0.666373 0.5
403 1 0.500572 0.677701 0.5
404 1 0.249991 0.649619 0.5
405 1 0.0272164 0.667161 0.5
406 1 0.799886 0.655544 0.5
407 1 0.936427 0.675956 0.5
408 1 0.652647 0.682139 0.5
409 1 0.430426 0.673128 0.5
410 1 0.564696 0.68144 0.5
411 1 0.790343 0.678844 0.5
412 1 0.470853 0.612765 0.5
413 1 0.279422 0.677146 0.5
414 1 0.627103 0.673763 0.5
415 1 0.415446 0.676874 0.5
416 1 0.647008 0.582319 0.5
417 1 0.0969032 0.626681 0.5
418 1 0.502573 0.649644 0.5
419 1 0.602859 0.640001 0.5
420 1 0.138686 0.585941 0.5
421 1 0.528724 0.57021 0.5
422 1 0.444895 0.667859 0.5
423 1 0.275119 0.680665 0.5
424 1 0.331427 0.569817 0.5
425 1 0.583799 0.675313 0.5
426 1 0.77519 0.615774 0.5
427 1 0.887298 0.588125 0.5
428 1 0.669178 0.617503 0.5
429 1 0.468821 0.641817 0.5
430 1 0.226806 0.681173 0.5
431 1 0.235142 0.651719 0.5
432 1 0.94457 0.643247 0.5
433 1 0.696908 0.569765 0.5
434 1 0.496357 0.615352 0.5
435 1 0.494673 0.67846 0.5
436 1 0.208709 0.650168 0.5
437 1 0.801328 0.611382 0.5
438 1 0.130702 0.634873 0.5
439 1 0.561478 0.647443 0.5
440 1 0.530675 0.61302 0.5
441 1 0.42318 0.686508 0.5
442 1 0.290267 0.677061 0.5
443 1 0.885784 0.575358 0.5
444 1 0.489015 0.654136 0.5
445 1 0.927932 0.676173 0.5
446 1 0.645586 0.673763 0.5
447 1 0.63147 0.649271 0.5
448 1 0.314333 0.605718 0.5
449 1 0.752591 0.675118 0.5
450 1 0.402158 0.686883 0.5
451 1 0.428536 0.639615 0.5
452 1 0.59794 0.680159 0.5
453 1 0.368247 0.574577 0.5
454 1 0.150258 0.605133 0.5
455 1 0.731781 0.655884 0.5
456 1 0.850379 0.659098 0.5
457 1 0.110393 0.675648 0.5
458 1 0.238961 0.68679 0.5
459 1 0.0728593 0.672907 0.5
460 1 0.230625 0.668022 0.5
461 1 0.659228 0.652004 0.5
462 1 0.980081 0.665682 0.5
463 1 0.0754361 0.589685 0.5
464 1 0.387195 0.664611 0.5
465 1 0.198097 0.654258 0.5
466 1 0.215031 0.685698 0.5
467 1 0.35693 0.66637 0.5
468 1 0.110944 0.621064 0.5
469 1 0.208046 0.620331 0.5
470 1 0.95763 0.665413 0.5
471 1 0.381437 0.571496 0.5
472 1 0.257126 0.68443 0.5
473 1 0.0460101 0.617447 0.5
474 1 0.853321 0.677559 0.5
475 1 0.637676 0.628219 0.5
476 1 0.615709 0.675183 0.5
477 1 0.180802 0.67827 0.5
478 1 0.0894549 0.685447 0.5
479 1 0.587228 0.683381 0.5
480 1 0.341395 0.679347 0.5
481 1 0.155068 0.679026 0.5
482 1 0.109489 0.683654 0.5
483 1 0.684209 0.647547 0.5
484 1 0.763458 0.679394 0.5
485 1 0.476657 0.669535 0.5
486 1 0.594823 0.670229 0.5
487 1 0.37812 0.605292 0.5