ITEM: TIMESTEP
38500
ITEM: NUMBER OF ATOMS
3
ITEM: BOX BOUNDS ff fm pp
0.0000000000000000e+00 3.0000000000000000e+00
0.0000000000000000e+00 5.0000000000000000e+00
-5.0000000000000000e-01 5.0000000000000000e-01
ITEM: ATOMS x y z radius
1.0077 0.989722 0 1
2.37164 1.82506 0 0.5
0.989976 3.40468 0 1
