ITEM: TIMESTEP
53000
ITEM: NUMBER OF ATOMS
4
ITEM: BOX BOUNDS ff fm pp
0.0000000000000000e+00 3.0000000000000000e+00
0.0000000000000000e+00 5.0000000000000000e+00
-5.0000000000000000e-01 5.0000000000000000e-01
ITEM: ATOMS x y z radius
2.03901 0.973583 0 1
0.985817 2.68918 0 1
2.51263 2.55283 0 0.5
2.17033 4.15247 0 0.5
