ITEM: TIMESTEP
37500
ITEM: NUMBER OF ATOMS
3
ITEM: BOX BOUNDS ff fm pp
0.0000000000000000e+00 3.0000000000000000e+00
0.0000000000000000e+00 5.0000000000000000e+00
-5.0000000000000000e-01 5.0000000000000000e-01
ITEM: ATOMS x y z radius
1.00087 0.989553 0 1
2.45374 1.81946 0 0.5
0.964781 3.4932 0 1
