ITEM: TIMESTEP
55500
ITEM: NUMBER OF ATOMS
4
ITEM: BOX BOUNDS ff fm pp
0.0000000000000000e+00 3.0000000000000000e+00
0.0000000000000000e+00 5.0000000000000000e+00
-5.0000000000000000e-01 5.0000000000000000e-01
ITEM: ATOMS x y z radius
2.03033 0.973267 0 1
0.965983 2.66497 0 1
2.47027 2.59229 0 0.5
1.84586 4.03924 0 0.5
