ITEM: TIMESTEP
19000
ITEM: NUMBER OF ATOMS
2
ITEM: BOX BOUNDS ff fm pp
0.0000000000000000e+00 3.0000000000000000e+00
0.0000000000000000e+00 5.0000000000000000e+00
-5.0000000000000000e-01 5.0000000000000000e-01
ITEM: ATOMS x y z radius
1.47679 1.48056 0 0.5
1.03059 3.03003 0 1
