ITEM: TIMESTEP
4
ITEM: NUMBER OF ATOMS
20
ITEM: BOX BOUNDS pp pp pp
0.0000000000000000e+00 5.0000000000000000e+00
0.0000000000000000e+00 5.0000000000000000e+01
-5.0000000000000000e-01 5.0000000000000000e-01
ITEM: ATOMS id type x y z
1 1 -0.0193106 0.0243609 -0.0423405
2 1 2.52442 2.51649 0.0362609
3 1 -0.0125415 4.97477 -0.00390909
4 1 2.47804 7.51319 0.0146602
5 1 0.0178428 9.97742 -0.031836
6 1 2.44522 12.5409 -0.0243212
7 1 0.0388644 15.0134 -0.0111302
8 1 2.51087 17.5135 0.062897
9 1 0.0142129 20.0133 0.0436954
10 1 2.49998 22.5176 -0.00837213
11 1 0.00704717 24.9974 -0.0136911
12 1 2.49762 27.4857 -0.0190966
13 1 0.0364212 29.9506 0.00919601
14 1 2.49733 32.4976 -0.00579704
15 1 -0.0327618 35.0105 0.0487013
16 1 2.4946 37.4765 -0.0366888
17 1 0.0164755 39.9579 -0.016785
18 1 2.49073 42.5222 -0.0116961
19 1 -0.00510283 45.0046 0.0180991
20 1 2.50005 47.4921 -0.0078463
ITEM: TIMESTEP
6
ITEM: NUMBER OF ATOMS
20
ITEM: BOX BOUNDS pp pp pp
0.0000000000000000e+00 5.0000000000000000e+00
0.0000000000000000e+00 5.0000000000000000e+01
-5.0000000000000000e-01 5.0000000000000000e-01
ITEM: ATOMS id type x y z
1 1 -0.0561565 0.0719698 -0.127022
2 1 2.57058 2.54846 0.108784
3 1 -0.0364929 4.92669 -0.011727
4 1 2.43574 7.53724 0.043981
5 1 0.0506664 9.93473 -0.0955105
6 1 2.34036 12.6197 -0.0729647
7 1 0.11258 15.0419 -0.0333911
8 1 2.5335 17.5406 0.188693
9 1 0.0421491 20.0401 0.131087
10 1 2.50058 22.5522 -0.0251173
11 1 0.0206351 24.9924 -0.0410727
12 1 2.49449 27.456 -0.0572892
13 1 0.107031 29.854 0.0275872
14 1 2.49204 32.492 -0.0173916
15 1 -0.0965131 35.0303 0.146104
16 1 2.48354 37.4298 -0.110066
17 1 0.048207 39.8758 -0.0503568
18 1 2.47282 42.5645 -0.0350875
19 1 -0.0152808 45.0141 0.0543
20 1 2.49953 47.4775 -0.0235401
ITEM: TIMESTEP
8
ITEM: NUMBER OF ATOMS
20
ITEM: BOX BOUNDS pp pp pp
0.0000000000000000e+00 5.0000000000000000e+00
0.0000000000000000e+00 5.0000000000000000e+01
-5.0000000000000000e-01 5.0000000000000000e-01
ITEM: ATOMS id type x y z
1 1 -0.0878474 0.115993 -0.211703
2 1 2.60763 2.57703 0.181308
3 1 -0.0559281 4.8862 -0.0195461
4 1 2.39895 7.55394 0.0733057
5 1 0.0755406 9.89911 -0.159188
6 1 2.2501 12.6877 -0.121612
7 1 0.172381 15.0787 -0.0556526
8 1 2.55861 17.568 0.314492
9 1 0.0687136 20.0672 0.218483
10 1 2.50303 22.5848 -0.0418638
11 1 0.0326612 24.9883 -0.0684562
12 1 2.49712 27.4228 -0.0954831
13 1 0.170809 29.764 0.0459791
14 1 2.48646 32.4845 -0.0289858
15 1 -0.15458 35.046 0.243509
16 1 2.47136 37.3847 -0.183449
17 1 0.0765954 39.799 -0.0839332
18 1 2.45634 42.6018 -0.0584768
19 1 -0.025382 45.0241 0.090504
20 1 2.49744 47.466 -0.0392331
ITEM: TIMESTEP
10
ITEM: NUMBER OF ATOMS
20
ITEM: BOX BOUNDS pp pp pp
0.0000000000000000e+00 5.0000000000000000e+00
0.0000000000000000e+00 5.0000000000000000e+01
-5.0000000000000000e-01 5.0000000000000000e-01
ITEM: ATOMS id type x y z
1 1 -0.111394 0.153714 -0.296386
2 1 2.62802 2.59932 0.253834
3 1 -0.0661685 4.85908 -0.0273671
4 1 2.37219 7.55814 0.102633
5 1 0.0878948 9.87498 -0.222864
6 1 2.18513 12.7332 -0.17026
7 1 0.206673 15.1343 -0.0779151
8 1 2.58736 17.5963 0.440294
9 1 0.0932387 20.0948 0.305881
10 1 2.50848 22.6142 -0.0586115
11 1 0.0422156 24.9856 -0.0958401
12 1 2.51038 27.3826 -0.13368
13 1 0.22294 29.6856 0.064371
14 1 2.47988 32.4743 -0.0405744
15 1 -0.202565 35.0544 0.340914
16 1 2.45667 37.343 -0.256838
17 1 0.0996761 39.7304 -0.11751
18 1 2.44155 42.6318 -0.0818628
19 1 -0.0353685 45.035 0.126708
20 1 2.49319 47.4592 -0.0549263
ITEM: TIMESTEP
12
ITEM: NUMBER OF ATOMS
20
ITEM: BOX BOUNDS pp pp pp
0.0000000000000000e+00 5.0000000000000000e+00
0.0000000000000000e+00 5.0000000000000000e+01
-5.0000000000000000e-01 5.0000000000000000e-01
ITEM: ATOMS id type x y z
1 1 -0.124574 0.182685 -0.381074
2 1 2.62541 2.61299 0.326361
3 1 -0.0632233 4.85 -0.0351873
4 1 2.35905 7.54614 0.131964
5 1 0.0844349 9.86558 -0.28654
6 1 2.15154 12.7482 -0.21891
7 1 0.208701 15.216 -0.100179
8 1 2.62016 17.6264 0.566095
9 1 0.11534 20.1227 0.393281
10 1 2.51777 22.6394 -0.0753602
11 1 0.048965 24.9842 -0.123225
12 1 2.5382 27.3329 -0.171879
13 1 0.259475 29.6227 0.0827632
14 1 2.47159 32.4609 -0.0521604
15 1 -0.236206 35.0521 0.43832
16 1 2.43815 37.3064 -0.330231
17 1 0.115392 39.6723 -0.151083
18 1 2.42857 42.6532 -0.105246
19 1 -0.0452156 45.0469 0.162911
20 1 2.48647 47.4583 -0.0706195
ITEM: TIMESTEP
14
ITEM: NUMBER OF ATOMS
20
ITEM: BOX BOUNDS pp pp pp
0.0000000000000000e+00 5.0000000000000000e+00
0.0000000000000000e+00 5.0000000000000000e+01
-5.0000000000000000e-01 5.0000000000000000e-01
ITEM: ATOMS id type x y z
1 1 -0.12648 0.201478 -0.465767
2 1 2.59816 2.61787 0.39889
3 1 -0.0466776 4.8601 -0.043006
4 1 2.36025 7.51768 0.161294
5 1 0.0647137 9.87107 -0.350215
6 1 2.14533 12.7366 -0.267561
7 1 0.182885 15.3184 -0.122443
8 1 2.65621 17.6599 0.691898
9 1 0.134941 20.1508 0.480682
10 1 2.53132 22.6596 -0.0921097
11 1 0.0537423 24.9834 -0.150612
12 1 2.58096 27.2741 -0.21008
13 1 0.279221 29.5768 0.101154
14 1 2.46114 32.444 -0.0637412
15 1 -0.252618 35.0365 0.535726
16 1 2.41564 37.2755 -0.403629
17 1 0.121602 39.6269 -0.184652
18 1 2.41738 42.6653 -0.128627
19 1 -0.0549114 45.0598 0.199109
20 1 2.47718 47.4643 -0.0863114
ITEM: TIMESTEP
16
ITEM: NUMBER OF ATOMS
20
ITEM: BOX BOUNDS pp pp pp
0.0000000000000000e+00 5.0000000000000000e+00
0.0000000000000000e+00 5.0000000000000000e+01
-5.0000000000000000e-01 5.0000000000000000e-01
ITEM: ATOMS id type x y z
1 1 -0.117913 0.210107 -0.550466
2 1 2.55067 2.61605 0.471422
3 1 -0.0207025 4.88641 -0.050825
4 1 2.37355 7.47628 0.190624
5 1 0.0312969 9.88834 -0.41389
6 1 2.15723 12.71 -0.31621
7 1 0.140896 15.4281 -0.144708
8 1 2.69274 17.699 0.817703
9 1 0.152266 20.179 0.568081
10 1 2.54903 22.6742 -0.10886
11 1 0.0591913 24.9812 -0.177998
12 1 2.6342 27.2107 -0.24828
13 1 0.284381 29.5458 0.119544
14 1 2.44838 32.4236 -0.0753179
15 1 -0.251473 35.007 0.633129
16 1 2.39101 37.2493 -0.477026
17 1 0.116351 39.5961 -0.218218
18 1 2.40792 42.6679 -0.152005
19 1 -0.0644649 45.0735 0.235302
20 1 2.46543 47.4775 -0.102001
ITEM: TIMESTEP
18
ITEM: NUMBER OF ATOMS
20
ITEM: BOX BOUNDS pp pp pp
0.0000000000000000e+00 5.0000000000000000e+00
0.0000000000000000e+00 5.0000000000000000e+01
-5.0000000000000000e-01 5.0000000000000000e-01
ITEM: ATOMS id type x y z
1 1 4.89871 0.209692 0.364834
2 1 2.49119 2.61002 -0.456044
3 1 0.00792408 4.92385 -0.0586429
4 1 2.39561 7.42761 0.219954
5 1 4.98809 9.91284 -0.477563
6 1 2.17988 12.6782 -0.364858
7 1 0.0951368 15.5316 -0.166972
8 1 2.72427 17.7473 -0.0564954
9 1 0.167774 20.2071 -0.344521
10 1 2.57044 22.6831 -0.125611
11 1 0.0700795 24.9745 -0.205383
12 1 2.68966 27.1502 -0.286482
13 1 0.27902 29.5261 0.137933
14 1 2.43351 32.3997 -0.0868953
15 1 4.76489 34.9648 -0.26947
16 1 2.36774 37.2254 0.449576
17 1 0.0984282 39.5811 -0.251782
18 1 2.40004 42.6615 -0.175382
19 1 4.92609 45.0876 0.271493
20 1 2.45151 47.498 -0.11769
ITEM: TIMESTEP
20
ITEM: NUMBER OF ATOMS
20
ITEM: BOX BOUNDS pp pp pp
0.0000000000000000e+00 5.0000000000000000e+00
0.0000000000000000e+00 5.0000000000000000e+01
-5.0000000000000000e-01 5.0000000000000000e-01
ITEM: ATOMS id type x y z
1 1 4.91989 0.201623 0.280136
2 1 2.42864 2.60134 -0.383504
3 1 0.0324321 4.96731 -0.066462
4 1 2.42381 7.37775 0.249282
5 1 4.9387 9.94053 -0.541234
6 1 2.20924 12.6465 -0.413506
7 1 0.056778 15.6188 -0.189239
8 1 2.74309 17.8095 0.0693025
9 1 0.182038 20.2354 -0.257119
10 1 2.59502 22.686 -0.142365
11 1 0.0923953 24.9588 -0.232767
12 1 2.73791 27.1004 -0.324684
13 1 0.267042 29.5142 0.156325
14 1 2.4171 32.3724 -0.0984748
15 1 4.79247 34.9124 -0.172071
16 1 2.34928 37.2017 0.37618
17 1 0.0679834 39.5816 -0.285345
18 1 2.39355 42.6465 -0.198759
19 1 4.91668 45.1016 0.307684
20 1 2.43593 47.5255 -0.133381
ITEM: TIMESTEP
22
ITEM: NUMBER OF ATOMS
20
ITEM: BOX BOUNDS pp pp pp
0.0000000000000000e+00 5.0000000000000000e+00
0.0000000000000000e+00 5.0000000000000000e+01
-5.0000000000000000e-01 5.0000000000000000e-01
ITEM: ATOMS id type x y z
1 1 4.94169 0.18689 0.195441
2 1 2.37059 2.59091 -0.310963
3 1 0.0476108 5.01219 -0.0742825
4 1 2.45681 7.33241 0.278609
5 1 4.88592 9.96865 -0.604901
6 1 2.24319 12.6175 -0.462155
7 1 0.0339719 15.6828 -0.211509
8 1 2.74251 17.8889 0.195098
9 1 0.195511 20.2642 -0.169715
10 1 2.62258 22.6828 -0.159122
11 1 0.1304 24.9314 -0.260145
12 1 2.77181 27.0673 -0.362887
13 1 0.251221 29.5079 0.174715
14 1 2.40014 32.3421 -0.110056
15 1 4.82689 34.852 -0.0746705
16 1 2.3376 37.1777 0.302784
17 1 0.0267007 39.5959 -0.318907
18 1 2.38823 42.6241 -0.222135
19 1 4.90724 45.1151 0.343878
20 1 2.41938 47.5592 -0.149076
ITEM: TIMESTEP
24
ITEM: NUMBER OF ATOMS
20
ITEM: BOX BOUNDS pp pp pp
0.0000000000000000e+00 5.0000000000000000e+00
0.0000000000000000e+00 5.0000000000000000e+01
-5.0000000000000000e-01 5.0000000000000000e-01
ITEM: ATOMS id type x y z
1 1 4.96019 0.166032 0.110748
2 1 2.32249 2.57976 -0.238419
3 1 0.0506799 5.05404 -0.0821046
4 1 2.49366 7.29664 0.307933
5 1 4.83205 9.99554 -0.668568
6 1 2.28019 12.5923 -0.51081
7 1 0.0287293 15.7226 -0.233778
8 1 2.72154 17.9842 0.320896
9 1 0.208154 20.2946 -0.0823092
10 1 2.65371 22.673 -0.175883
11 1 0.183143 24.8931 -0.287521
12 1 2.78959 27.052 -0.401092
13 1 0.233191 29.5057 0.193103
14 1 2.38403 32.3088 -0.121638
15 1 4.86405 34.7861 0.0227313
16 1 2.333 37.154 0.22939
17 1 -0.0227144 39.6212 -0.352471
18 1 2.38385 42.5952 -0.245508
19 1 4.89767 45.1278 0.380072
20 1 2.40279 47.5975 -0.164773
ITEM: TIMESTEP
26
ITEM: NUMBER OF ATOMS
20
ITEM: BOX BOUNDS pp pp pp
0.0000000000000000e+00 5.0000000000000000e+00
0.0000000000000000e+00 5.0000000000000000e+01
-5.0000000000000000e-01 5.0000000000000000e-01
ITEM: ATOMS id type x y z
1 1 4.97187 0.139658 0.026056
2 1 2.28759 2.56934 -0.165874
3 1 0.0420012 5.08846 -0.089926
4 1 2.5324 7.2746 0.337253
5 1 4.77937 10.0202 -0.732236
6 1 2.31861 12.5717 -0.559468
7 1 0.0370762 15.743 -0.256042
8 1 2.68594 18.0879 0.446694
9 1 0.218951 20.328 0.00509737
10 1 2.68976 22.6559 -0.192646
11 1 0.244144 24.8488 -0.314895
12 1 2.79471 27.0514 -0.439294
13 1 0.213784 29.5071 0.211488
14 1 2.37058 32.2722 -0.133223
15 1 4.90047 34.7168 0.120134
16 1 2.33466 37.1318 0.155998
17 1 -0.0773315 39.6545 -0.386033
18 1 2.38016 42.5611 -0.268881
19 1 4.88793 45.1393 0.416262
20 1 2.38731 47.6385 -0.180465
ITEM: TIMESTEP
28
ITEM: NUMBER OF ATOMS
20
ITEM: BOX BOUNDS pp pp pp
0.0000000000000000e+00 5.0000000000000000e+00
0.0000000000000000e+00 5.0000000000000000e+01
-5.0000000000000000e-01 5.0000000000000000e-01
ITEM: ATOMS id type x y z
1 1 4.97397 0.109203 -0.0586339
2 1 2.26715 2.56103 -0.0933264
3 1 0.0252572 5.11139 -0.0977492
4 1 2.56895 7.26922 0.366568
5 1 4.73057 10.0416 -0.795902
6 1 2.35635 12.5565 -0.608126
7 1 0.0531949 15.7503 -0.278306
8 1 2.64494 18.1899 0.572492
9 1 0.225587 20.3665 0.0925013
10 1 2.73216 22.6314 -0.20941
11 1 0.304746 24.8046 -0.342267
12 1 2.79258 27.0611 -0.477494
13 1 0.193358 29.5116 0.22987
14 1 2.36201 32.2319 -0.144808
15 1 4.93328 34.6466 0.217539
16 1 2.3413 37.112 0.082608
17 1 -0.134541 39.6932 -0.419597
18 1 2.37683 42.523 -0.292257
19 1 4.87803 45.1495 0.452452
20 1 2.37428 47.6794 -0.196153
ITEM: TIMESTEP
30
ITEM: NUMBER OF ATOMS
20
ITEM: BOX BOUNDS pp pp pp
0.0000000000000000e+00 5.0000000000000000e+00
0.0000000000000000e+00 5.0000000000000000e+01
-5.0000000000000000e-01 5.0000000000000000e-01
ITEM: ATOMS id type x y z
1 1 4.96488 0.0774243 -0.143319
2 1 2.26077 2.55545 -0.0207793
3 1 0.00623094 5.11962 -0.105574
4 1 2.59749 7.28211 0.395877
5 1 4.68892 10.0589 -0.859564
6 1 2.3908 12.5486 -0.656784
7 1 0.0726577 15.7496 -0.300569
8 1 2.60809 18.2806 0.698288
9 1 0.225181 20.412 0.179903
10 1 2.78076 22.6006 -0.226177
11 1 0.357755 24.7656 -0.369637
12 1 2.78762 27.0772 -0.515689
13 1 0.172037 29.519 0.248253
14 1 2.36068 32.1872 -0.156393
15 1 4.96027 34.5781 0.314942
16 1 2.3515 37.0951 0.00921941
17 1 -0.192182 39.7351 -0.453164
18 1 2.37342 42.4825 -0.315637
19 1 4.86803 45.1583 0.488641
20 1 2.36509 47.7171 -0.211837
ITEM: TIMESTEP
32
ITEM: NUMBER OF ATOMS
20
ITEM: BOX BOUNDS pp pp pp
0.0000000000000000e+00 5.0000000000000000e+00
0.0000000000000000e+00 5.0000000000000000e+01
-5.0000000000000000e-01 5.0000000000000000e-01
ITEM: ATOMS id type x y z
1 1 4.94428 0.0481822 -0.228001
2 1 2.267 2.55215 0.0517643
3 1 4.99013 5.11171 -0.113396
4 1 2.61264 7.3129 0.425186
5 1 4.65809 10.071 0.0767773
6 1 2.41912 12.5501 0.294553
7 1 0.0929881 15.7441 -0.322831
8 1 2.58316 18.3523 -0.175917
9 1 0.217187 20.4643 0.267302
10 1 2.83145 22.5675 -0.242944
11 1 0.399261 24.7346 -0.397004
12 1 2.78238 27.0969 0.44612
13 1 0.149883 29.5292 0.266638
14 1 2.3688 32.1376 -0.16798
15 1 4.98 34.5137 0.412345
16 1 2.36397 37.0807 -0.0641683
17 1 4.75162 39.7782 -0.486732
18 1 2.36921 42.4414 -0.339019
19 1 4.85805 45.1655 -0.475171
20 1 2.36079 47.748 -0.227522
ITEM: TIMESTEP
34
ITEM: NUMBER OF ATOMS
20
ITEM: BOX BOUNDS pp pp pp
0.0000000000000000e+00 5.0000000000000000e+00
0.0000000000000000e+00 5.0000000000000000e+01
-5.0000000000000000e-01 5.0000000000000000e-01
ITEM: ATOMS id type x y z
1 1 4.91351 0.0255545 -0.312682
2 1 2.28389 2.54978 0.124307
3 1 4.97909 5.0891 -0.121214
4 1 2.61163 7.35841 0.454491
5 1 4.64157 10.0772 0.0131242
6 1 2.43893 12.5629 0.245889
7 1 0.113038 15.7356 -0.345093
8 1 2.57427 18.4008 -0.0501205
9 1 0.207713 20.5176 0.354698
10 1 2.87429 22.5409 -0.259711
11 1 0.428443 24.7126 -0.424373
12 1 2.77772 27.1181 0.407931
13 1 0.127061 29.5418 0.285027
14 1 2.38779 32.0833 -0.179565
15 1 4.99202 34.4552 0.509748
16 1 2.37758 37.0685 -0.137555
17 1 4.69875 39.8205 -0.520301
18 1 2.36304 42.4017 -0.362403
19 1 4.84827 45.171 -0.438985
20 1 2.36139 47.7693 -0.243211
ITEM: TIMESTEP
36
ITEM: NUMBER OF ATOMS
20
ITEM: BOX BOUNDS pp pp pp
0.0000000000000000e+00 5.0000000000000000e+00
0.0000000000000000e+00 5.0000000000000000e+01
-5.0000000000000000e-01 5.0000000000000000e-01
ITEM: ATOMS id type x y z
1 1 4.87569 0.012819 -0.397364
2 1 2.30933 2.54672 0.196851
3 1 4.97202 5.05589 -0.12903
4 1 2.59462 7.41294 0.483797
5 1 4.64184 10.0785 -0.0505276
6 1 2.44911 12.5879 0.197223
7 1 0.132346 15.7251 -0.367356
8 1 2.58167 18.4258 0.0756793
9 1 0.209797 20.5603 0.442088
10 1 2.89509 22.5325 -0.276479
11 1 0.445929 24.7001 -0.45174
12 1 2.77342 27.1391 0.369743
13 1 0.104007 29.5566 0.303416
14 1 2.4179 32.0253 -0.191149
15 1 4.99706 34.4037 0.607153
16 1 2.39143 37.0576 -0.21094
17 1 4.6514 39.8595 -0.55387
18 1 2.35314 42.3663 -0.385788
19 1 4.83888 45.1746 -0.402802
20 1 2.36531 47.7787 -0.258905
ITEM: TIMESTEP
38
ITEM: NUMBER OF ATOMS
20
ITEM: BOX BOUNDS pp pp pp
0.0000000000000000e+00 5.0000000000000000e+00
0.0000000000000000e+00 5.0000000000000000e+01
-5.0000000000000000e-01 5.0000000000000000e-01
ITEM: ATOMS id type x y z
1 1 4.83543 0.0118206 -0.482045
2 1 2.34114 2.5416 0.269395
3 1 4.96641 5.0173 -0.136846
4 1 2.56323 7.47014 0.513102
5 1 4.65968 10.0773 -0.114178
6 1 2.45021 12.6243 0.148556
7 1 0.150747 15.713 -0.38962
8 1 2.60404 18.4283 0.201483
9 1 0.233168 20.5827 0.529467
10 1 2.88537 22.5501 -0.293242
11 1 0.451756 24.6981 -0.479108
12 1 2.76867 27.1585 0.331557
13 1 0.0816547 29.5729 0.321804
14 1 2.45786 31.9654 -0.202733
15 1 4.99685 34.3591 0.704559
16 1 2.40486 37.0476 -0.284325
17 1 4.61212 39.892 -0.587439
18 1 2.33722 42.3386 -0.40917
19 1 4.8301 45.1759 -0.366618
20 1 2.36947 47.7753 -0.274601
ITEM: TIMESTEP
40
ITEM: NUMBER OF ATOMS
20
ITEM: BOX BOUNDS pp pp pp
0.0000000000000000e+00 5.0000000000000000e+00
0.0000000000000000e+00 5.0000000000000000e+01
-5.0000000000000000e-01 5.0000000000000000e-01
ITEM: ATOMS id type x y z
1 1 4.79787 0.0226968 -0.566726
2 1 2.37684 2.53371 0.341942
3 1 4.96016 4.97808 -0.144665
4 1 2.51949 7.52498 0.542409
5 1 4.69406 10.0764 -0.177828
6 1 2.44413 12.6698 0.0998904
7 1 0.16819 15.6997 -0.411886
8 1 2.64039 18.4098 0.327285
9 1 0.272572 20.5859 0.616842
10 1 2.85319 22.5893 -0.309998
11 1 0.444096 24.7089 -0.506478
12 1 2.76253 27.1753 0.293371
13 1 0.0617253 29.5898 0.340192
14 1 2.5049 31.9061 -0.214316
15 1 4.9937 34.3209 0.801966
16 1 2.41738 37.0379 -0.357713
17 1 4.58339 39.9152 -0.621003
18 1 2.31292 42.3217 -0.432554
19 1 4.82211 45.1744 -0.330433
20 1 2.37034 47.7592 -0.2903
ITEM: TIMESTEP
42
ITEM: NUMBER OF ATOMS
20
ITEM: BOX BOUNDS pp pp pp
0.0000000000000000e+00 5.0000000000000000e+00
0.0000000000000000e+00 5.0000000000000000e+01
-5.0000000000000000e-01 5.0000000000000000e-01
ITEM: ATOMS id type x y z
1 1 4.76747 0.0436349 -0.651409
2 1 2.41329 2.52327 0.414486
3 1 4.95238 4.94179 -0.152486
4 1 2.46578 7.5747 0.57172
5 1 4.7423 10.0784 -0.241479
6 1 2.43337 12.7216 0.0512259
7 1 0.184664 15.6854 -0.434152
8 1 2.68971 18.3719 0.453089
9 1 0.313384 20.577 0.704216
10 1 2.81735 22.6386 -0.326754
11 1 0.419777 24.7358 -0.53385
12 1 2.75417 27.1888 0.255186
13 1 0.0470339 29.6054 0.358578
14 1 2.55469 31.8506 -0.225895
15 1 4.99005 34.2885 0.899373
16 1 2.42866 37.0281 -0.431104
17 1 4.56676 39.9271 -0.654564
18 1 2.27883 42.3178 -0.455937
19 1 4.81503 45.1698 -0.294246
20 1 2.36531 47.7319 -0.305998
ITEM: TIMESTEP
44
ITEM: NUMBER OF ATOMS
20
ITEM: BOX BOUNDS pp pp pp
0.0000000000000000e+00 5.0000000000000000e+00
0.0000000000000000e+00 5.0000000000000000e+01
-5.0000000000000000e-01 5.0000000000000000e-01
ITEM: ATOMS id type x y z
1 1 4.74741 0.0707787 -0.736097
2 1 2.44659 2.51151 0.487023
3 1 4.94328 4.91088 -0.160308
4 1 2.40519 7.6184 0.601037
5 1 4.80048 10.0845 -0.30513
6 1 2.42038 12.7768 0.00256117
7 1 0.200192 15.6701 -0.456416
8 1 2.74952 18.3171 0.578891
9 1 0.344647 20.561 0.791591
10 1 2.79291 22.6886 -0.343509
11 1 0.377032 24.7809 -0.561224
12 1 2.74308 27.1993 0.217
13 1 0.0415772 29.6163 0.376966
14 1 2.60154 31.8025 -0.237477
15 1 4.98806 34.2616 0.996782
16 1 2.43844 37.018 -0.504497
17 1 4.56193 39.9275 -0.688122
18 1 2.23543 42.3271 -0.479317
19 1 4.8088 45.1613 -0.258059
20 1 2.35352 47.6959 -0.321695
ITEM: TIMESTEP
46
ITEM: NUMBER OF ATOMS
20
ITEM: BOX BOUNDS pp pp pp
0.0000000000000000e+00 5.0000000000000000e+00
0.0000000000000000e+00 5.0000000000000000e+01
-5.0000000000000000e-01 5.0000000000000000e-01
ITEM: ATOMS id type x y z
1 1 4.7398 0.0987384 -0.820787
2 1 2.47223 2.5005 0.559555
3 1 4.93379 4.88705 -0.168132
4 1 2.34166 7.65584 0.630357
5 1 4.86375 10.0956 -0.36878
6 1 2.40742 12.8331 -0.046103
7 1 0.214886 15.654 -0.478681
8 1 2.81557 18.2493 0.704693
9 1 0.363408 20.5393 0.878963
10 1 2.78418 22.7346 -0.360263
11 1 0.318583 24.8434 -0.588598
12 1 2.72902 27.2077 0.178815
13 1 0.0498292 29.6183 0.395357
14 1 2.63919 31.7661 -0.24906
15 1 4.98939 34.2402 1.09419
16 1 2.44658 37.0071 -0.577892
17 1 4.56679 39.9181 -0.721673
18 1 2.1851 42.3479 -0.502696
19 1 4.80311 45.1486 -0.221871
20 1 2.33571 47.6546 -0.337389
ITEM: TIMESTEP
48
ITEM: NUMBER OF ATOMS
20
ITEM: BOX BOUNDS pp pp pp
0.0000000000000000e+00 5.0000000000000000e+00
0.0000000000000000e+00 5.0000000000000000e+01
-5.0000000000000000e-01 5.0000000000000000e-01
ITEM: ATOMS id type x y z
1 1 4.74593 0.121857 0.0945245
2 1 2.48592 2.4925 -0.367915
3 1 4.92505 4.87143 -0.175956
4 1 2.27988 7.68613 -0.340322
5 1 4.92672 10.113 -0.432434
6 1 2.39657 12.8884 -0.0947649
7 1 0.229052 15.6369 -0.500947
8 1 2.88256 18.1728 -0.169502
9 1 0.372235 20.5128 -0.0336677
10 1 2.78628 22.7751 -0.377017
11 1 0.251829 24.9196 0.384025
12 1 2.71175 27.2159 0.140634
13 1 0.0746636 29.6075 0.413749
14 1 2.66292 31.7445 -0.260646
15 1 4.99514 34.2244 0.19159
16 1 2.45296 36.9955 0.348714
17 1 4.57841 39.9014 0.244777
18 1 2.1313 42.3774 0.473923
19 1 4.79727 45.1312 -0.185685
20 1 2.31357 47.6116 -0.353082
ITEM: TIMESTEP
50
ITEM: NUMBER OF ATOMS
20
ITEM: BOX BOUNDS pp pp pp
0.0000000000000000e+00 5.0000000000000000e+00
0.0000000000000000e+00 5.0000000000000000e+01
-5.0000000000000000e-01 5.0000000000000000e-01
ITEM: ATOMS id type x y z
1 1 4.76587 0.135873 0.00983877
2 1 2.48497 2.48905 -0.295381
3 1 4.91783 4.86468 -0.183783
4 1 2.22499 7.70707 -0.311002
5 1 4.98374 10.1393 -0.496093
6 1 2.38993 12.9406 -0.143425
7 1 0.243305 15.6184 -0.52321
8 1 2.945 18.0921 -0.043694
9 1 0.375491 20.4828 0.0536968
10 1 2.7909 22.8091 -0.393771
11 1 0.186145 25.0047 0.356646
12 1 2.69088 27.2269 0.102459
13 1 0.114814 29.5827 0.432138
14 1 2.672 31.7384 -0.272233
15 1 5.00584 34.2143 0.288994
16 1 2.45755 36.983 0.27532
17 1 4.59398 39.8797 0.211226
18 1 2.0776 42.4123 0.450542
19 1 4.79012 45.1093 -0.149495
20 1 2.28905 47.5698 -0.368774
ITEM: TIMESTEP
52
ITEM: NUMBER OF ATOMS
20
ITEM: BOX BOUNDS pp pp pp
0.0000000000000000e+00 5.0000000000000000e+00
0.0000000000000000e+00 5.0000000000000000e+01
-5.0000000000000000e-01 5.0000000000000000e-01
ITEM: ATOMS id type x y z
1 1 4.79778 0.13909 -0.0748425
2 1 2.4695 2.49009 -0.222841
3 1 4.91226 4.86697 -0.191614
4 1 2.18178 7.71561 -0.281683
5 1 5.02974 10.1777 -0.559757
6 1 2.3898 12.9876 -0.192083
7 1 0.25863 15.5975 -0.545468
8 1 2.99762 18.0116 0.0821125
9 1 0.376919 20.4505 0.141059
10 1 2.79115 22.8357 -0.410526
11 1 0.129987 25.093 0.329269
12 1 2.66592 27.244 0.0642878
13 1 0.16432 29.5463 0.450523
14 1 2.67001 31.7453 -0.283819
15 1 5.02145 34.2101 0.386395
16 1 2.46041 36.9695 0.201927
17 1 4.61144 39.8549 0.177675
18 1 2.02726 42.4498 0.427159
19 1 4.77998 45.0837 -0.113306
20 1 2.26404 47.5313 -0.384468
