ITEM: TIMESTEP
2
ITEM: NUMBER OF ATOMS
20
ITEM: BOX BOUNDS pp pp pp
0.0000000000000000e+00 5.0000000000000000e+00
0.0000000000000000e+00 5.0000000000000000e+01
-5.0000000000000000e-01 5.0000000000000000e-01
ITEM: ATOMS id type x y z
1 1 0 0 -1.13937e-09
2 1 2.5 2.5 -1.33733e-09
3 1 0 5 -1.42346e-09
4 1 2.5 7.5 -1.37474e-09
5 1 0 10 -1.37474e-09
6 1 2.5 12.5 -1.37474e-09
7 1 0 15 -1.37474e-09
8 1 2.5 17.5 -1.37474e-09
9 1 0 20 -1.37474e-09
10 1 2.5 22.5 -1.37474e-09
11 1 3.46945e-18 25 -1.14191e-09
12 1 2.5 27.5 -1.60757e-09
13 1 3.46945e-18 30 -1.37474e-09
14 1 2.5 32.5 -1.37474e-09
15 1 3.46945e-18 35 -1.37474e-09
16 1 2.5 37.5 -1.37474e-09
17 1 3.46945e-18 40 -1.37474e-09
18 1 2.5 42.5 -1.42346e-09
19 1 0 45 -1.57016e-09
20 1 2.5 47.5 -1.60503e-09
ITEM: TIMESTEP
4
ITEM: NUMBER OF ATOMS
20
ITEM: BOX BOUNDS pp pp pp
0.0000000000000000e+00 5.0000000000000000e+00
0.0000000000000000e+00 5.0000000000000000e+01
-5.0000000000000000e-01 5.0000000000000000e-01
ITEM: ATOMS id type x y z
1 1 -1.5738e-13 7.06436e-11 -1.13972e-09
2 1 2.5 2.5 -1.33703e-09
3 1 -1.02212e-13 5 -1.4235e-09
4 1 2.5 7.5 -1.37462e-09
5 1 1.45417e-13 10 -1.375e-09
6 1 2.5 12.5 -1.37494e-09
7 1 3.16742e-13 15 -1.37483e-09
8 1 2.5 17.5 -1.37423e-09
9 1 1.15834e-13 20 -1.37439e-09
10 1 2.5 22.5 -1.37481e-09
11 1 5.74375e-14 25 -1.14202e-09
12 1 2.5 27.5 -1.60773e-09
13 1 2.96834e-13 30 -1.37467e-09
14 1 2.5 32.5 -1.37479e-09
15 1 -2.67003e-13 35 -1.37435e-09
16 1 2.5 37.5 -1.37504e-09
17 1 1.34278e-13 40 -1.37488e-09
18 1 2.5 42.5 -1.42356e-09
19 1 -4.15877e-14 45 -1.57001e-09
20 1 2.5 47.5 -1.6051e-09
ITEM: TIMESTEP
6
ITEM: NUMBER OF ATOMS
20
ITEM: BOX BOUNDS pp pp pp
0.0000000000000000e+00 5.0000000000000000e+00
0.0000000000000000e+00 5.0000000000000000e+01
-5.0000000000000000e-01 5.0000000000000000e-01
ITEM: ATOMS id type x y z
1 1 -3.14759e-13 4.23067e-10 -1.14008e-09
2 1 2.5 2.5 -1.33675e-09
3 1 -2.04424e-13 5 -1.42355e-09
4 1 2.5 7.5 -1.37452e-09
5 1 2.90832e-13 10 -1.37528e-09
6 1 2.5 12.5 -1.37516e-09
7 1 6.33481e-13 15 -1.37494e-09
8 1 2.5 17.5 -1.37373e-09
9 1 2.31668e-13 20 -1.37405e-09
10 1 2.5 22.5 -1.3749e-09
11 1 1.14871e-13 25 -1.14215e-09
12 1 2.5 27.5 -1.60791e-09
13 1 5.93662e-13 30 -1.37461e-09
14 1 2.5 32.5 -1.37485e-09
15 1 -5.34008e-13 35 -1.37397e-09
16 1 2.5 37.5 -1.37536e-09
17 1 2.68551e-13 40 -1.37503e-09
18 1 2.5 42.5 -1.42368e-09
19 1 -8.31754e-14 45 -1.56988e-09
20 1 2.5 47.5 -1.60519e-09
ITEM: TIMESTEP
8
ITEM: NUMBER OF ATOMS
20
ITEM: BOX BOUNDS pp pp pp
0.0000000000000000e+00 5.0000000000000000e+00
0.0000000000000000e+00 5.0000000000000000e+01
-5.0000000000000000e-01 5.0000000000000000e-01
ITEM: ATOMS id type x y z
1 1 -4.72134e-13 1.05727e-09 -1.14045e-09
2 1 2.5 2.5 -1.33648e-09
3 1 -3.06634e-13 5 -1.42361e-09
4 1 2.5 7.5 -1.37443e-09
5 1 4.36241e-13 10 -1.37556e-09
6 1 2.5 12.5 -1.37538e-09
7 1 9.50215e-13 15 -1.37506e-09
8 1 2.5 17.5 -1.37325e-09
9 1 3.47501e-13 20 -1.37372e-09
10 1 2.5 22.5 -1.37499e-09
11 1 1.72304e-13 25 -1.14228e-09
12 1 2.5 27.5 -1.60809e-09
13 1 8.90487e-13 30 -1.37456e-09
14 1 2.5 32.5 -1.37493e-09
15 1 -8.0101e-13 35 -1.37359e-09
16 1 2.5 37.5 -1.37568e-09
17 1 4.02822e-13 40 -1.3752e-09
18 1 2.5 42.5 -1.4238e-09
19 1 -1.24763e-13 45 -1.56977e-09
20 1 2.5 47.5 -1.60528e-09
ITEM: TIMESTEP
10
ITEM: NUMBER OF ATOMS
20
ITEM: BOX BOUNDS pp pp pp
0.0000000000000000e+00 5.0000000000000000e+00
0.0000000000000000e+00 5.0000000000000000e+01
-5.0000000000000000e-01 5.0000000000000000e-01
ITEM: ATOMS id type x y z
1 1 -6.29505e-13 1.97324e-09 -1.14082e-09
2 1 2.5 2.5 -1.33622e-09
3 1 -4.08843e-13 5 -1.42368e-09
4 1 2.5 7.5 -1.37434e-09
5 1 5.81642e-13 10 -1.37586e-09
6 1 2.5 12.5 -1.37562e-09
7 1 1.26694e-12 15 -1.37519e-09
8 1 2.5 17.5 -1.37277e-09
9 1 4.63332e-13 20 -1.3734e-09
10 1 2.5 22.5 -1.3751e-09
11 1 2.29736e-13 25 -1.14243e-09
12 1 2.5 27.5 -1.60829e-09
13 1 1.18731e-12 30 -1.37452e-09
14 1 2.5 32.5 -1.37501e-09
15 1 -1.06801e-12 35 -1.37323e-09
16 1 2.5 37.5 -1.37602e-09
17 1 5.37089e-13 40 -1.37537e-09
18 1 2.5 42.5 -1.42393e-09
19 1 -1.66351e-13 45 -1.56966e-09
20 1 2.5 47.5 -1.60539e-09
ITEM: TIMESTEP
12
ITEM: NUMBER OF ATOMS
20
ITEM: BOX BOUNDS pp pp pp
0.0000000000000000e+00 5.0000000000000000e+00
0.0000000000000000e+00 5.0000000000000000e+01
-5.0000000000000000e-01 5.0000000000000000e-01
ITEM: ATOMS id type x y z
1 1 -7.8687e-13 3.17097e-09 -1.14121e-09
2 1 2.5 2.5 -1.33597e-09
3 1 -5.11048e-13 5 -1.42376e-09
4 1 2.5 7.5 -1.37427e-09
5 1 7.27032e-13 10 -1.37616e-09
6 1 2.5 12.5 -1.37586e-09
7 1 1.58365e-12 15 -1.37532e-09
8 1 2.5 17.5 -1.37231e-09
9 1 5.79162e-13 20 -1.37309e-09
10 1 2.5 22.5 -1.37521e-09
11 1 2.87166e-13 25 -1.14258e-09
12 1 2.5 27.5 -1.6085e-09
13 1 1.48412e-12 30 -1.37449e-09
14 1 2.5 32.5 -1.3751e-09
15 1 -1.335e-12 35 -1.37288e-09
16 1 2.5 37.5 -1.37636e-09
17 1 6.71352e-13 40 -1.37555e-09
18 1 2.5 42.5 -1.42407e-09
19 1 -2.07938e-13 45 -1.56957e-09
20 1 2.5 47.5 -1.6055e-09
ITEM: TIMESTEP
14
ITEM: NUMBER OF ATOMS
20
ITEM: BOX BOUNDS pp pp pp
0.0000000000000000e+00 5.0000000000000000e+00
0.0000000000000000e+00 5.0000000000000000e+01
-5.0000000000000000e-01 5.0000000000000000e-01
ITEM: ATOMS id type x y z
1 1 -9.44227e-13 4.65046e-09 -1.1416e-09
2 1 2.5 2.5 -1.33573e-09
3 1 -6.13251e-13 5 -1.42384e-09
4 1 2.5 7.5 -1.37421e-09
5 1 8.72408e-13 10 -1.37647e-09
6 1 2.5 12.5 -1.37612e-09
7 1 1.90035e-12 15 -1.37547e-09
8 1 2.5 17.5 -1.37185e-09
9 1 6.9499e-13 20 -1.37279e-09
10 1 2.5 22.5 -1.37533e-09
11 1 3.44594e-13 25 -1.14275e-09
12 1 2.5 27.5 -1.60871e-09
13 1 1.78092e-12 30 -1.37447e-09
14 1 2.5 32.5 -1.3752e-09
15 1 -1.60199e-12 35 -1.37253e-09
16 1 2.5 37.5 -1.37671e-09
17 1 8.05609e-13 40 -1.37574e-09
18 1 2.5 42.5 -1.42422e-09
19 1 -2.49526e-13 45 -1.56948e-09
20 1 2.5 47.5 -1.60562e-09
ITEM: TIMESTEP
16
ITEM: NUMBER OF ATOMS
20
ITEM: BOX BOUNDS pp pp pp
0.0000000000000000e+00 5.0000000000000000e+00
0.0000000000000000e+00 5.0000000000000000e+01
-5.0000000000000000e-01 5.0000000000000000e-01
ITEM: ATOMS id type x y z
1 1 -1.10158e-12 6.41169e-09 -1.142e-09
2 1 2.5 2.5 -1.3355e-09
3 1 -7.15449e-13 5 -1.42394e-09
4 1 2.5 7.5 -1.37416e-09
5 1 1.01777e-12 10 -1.37679e-09
6 1 2.5 12.5 -1.37638e-09
7 1 2.21703e-12 15 -1.37563e-09
8 1 2.5 17.5 -1.37141e-09
9 1 8.10815e-13 20 -1.3725e-09
10 1 2.5 22.5 -1.37546e-09
11 1 4.02019e-13 25 -1.14292e-09
12 1 2.5 27.5 -1.60893e-09
13 1 2.07771e-12 30 -1.37446e-09
14 1 2.5 32.5 -1.37531e-09
15 1 -1.86896e-12 35 -1.3722e-09
16 1 2.5 37.5 -1.37707e-09
17 1 9.39859e-13 40 -1.37593e-09
18 1 2.5 42.5 -1.42438e-09
19 1 -2.91113e-13 45 -1.5694e-09
20 1 2.5 47.5 -1.60576e-09
ITEM: TIMESTEP
18
ITEM: NUMBER OF ATOMS
20
ITEM: BOX BOUNDS pp pp pp
0.0000000000000000e+00 5.0000000000000000e+00
0.0000000000000000e+00 5.0000000000000000e+01
-5.0000000000000000e-01 5.0000000000000000e-01
ITEM: ATOMS id type x y z
1 1 -1.25891e-12 8.45464e-09 -1.14241e-09
2 1 2.5 2.5 -1.33529e-09
3 1 -8.17642e-13 5 -1.42405e-09
4 1 2.5 7.5 -1.37411e-09
5 1 1.16311e-12 10 -1.37712e-09
6 1 2.5 12.5 -1.37666e-09
7 1 2.53369e-12 15 -1.3758e-09
8 1 2.5 17.5 -1.37097e-09
9 1 9.26638e-13 20 -1.37222e-09
10 1 2.5 22.5 -1.3756e-09
11 1 4.59442e-13 25 -1.1431e-09
12 1 2.5 27.5 -1.60917e-09
13 1 2.37449e-12 30 -1.37446e-09
14 1 2.5 32.5 -1.37543e-09
15 1 -2.13593e-12 35 -1.37187e-09
16 1 2.5 37.5 -1.37744e-09
17 1 1.0741e-12 40 -1.37614e-09
18 1 2.5 42.5 -1.42455e-09
19 1 -3.327e-13 45 -1.56934e-09
20 1 2.5 47.5 -1.6059e-09
ITEM: TIMESTEP
20
ITEM: NUMBER OF ATOMS
20
ITEM: BOX BOUNDS pp pp pp
0.0000000000000000e+00 5.0000000000000000e+00
0.0000000000000000e+00 5.0000000000000000e+01
-5.0000000000000000e-01 5.0000000000000000e-01
ITEM: ATOMS id type x y z
1 1 -1.41624e-12 1.07793e-08 -1.14282e-09
2 1 2.5 2.5 -1.33508e-09
3 1 -9.19831e-13 5 -1.42416e-09
4 1 2.5 7.5 -1.37407e-09
5 1 1.30843e-12 10 -1.37746e-09
6 1 2.5 12.5 -1.37694e-09
7 1 2.85032e-12 15 -1.37598e-09
8 1 2.5 17.5 -1.37055e-09
9 1 1.04246e-12 20 -1.37195e-09
10 1 2.5 22.5 -1.37575e-09
11 1 5.16862e-13 25 -1.14329e-09
12 1 2.5 27.5 -1.60941e-09
13 1 2.67125e-12 30 -1.37447e-09
14 1 2.5 32.5 -1.37556e-09
15 1 -2.40289e-12 35 -1.37156e-09
16 1 2.5 37.5 -1.37782e-09
17 1 1.20833e-12 40 -1.37636e-09
18 1 2.5 42.5 -1.42473e-09
19 1 -3.74287e-13 45 -1.56928e-09
20 1 2.5 47.5 -1.60606e-09
ITEM: TIMESTEP
22
ITEM: NUMBER OF ATOMS
20
ITEM: BOX BOUNDS pp pp pp
0.0000000000000000e+00 5.0000000000000000e+00
0.0000000000000000e+00 5.0000000000000000e+01
-5.0000000000000000e-01 5.0000000000000000e-01
ITEM: ATOMS id type x y z
1 1 -1.57355e-12 1.33857e-08 -1.14325e-09
2 1 2.5 2.5 -1.33488e-09
3 1 -1.02201e-12 5 -1.42428e-09
4 1 2.5 7.5 -1.37404e-09
5 1 1.45372e-12 10 -1.3778e-09
6 1 2.5 12.5 -1.37723e-09
7 1 3.16693e-12 15 -1.37617e-09
8 1 2.5 17.5 -1.37014e-09
9 1 1.15827e-12 20 -1.37168e-09
10 1 2.5 22.5 -1.37591e-09
11 1 5.74278e-13 25 -1.14349e-09
12 1 2.5 27.5 -1.60966e-09
13 1 2.96799e-12 30 -1.37448e-09
14 1 2.5 32.5 -1.3757e-09
15 1 -2.66983e-12 35 -1.37125e-09
16 1 2.5 37.5 -1.37821e-09
17 1 1.34255e-12 40 -1.37658e-09
18 1 2.5 42.5 -1.42491e-09
19 1 -4.15873e-13 45 -1.56924e-09
20 1 2.5 47.5 -1.60622e-09
ITEM: TIMESTEP
24
ITEM: NUMBER OF ATOMS
20
ITEM: BOX BOUNDS pp pp pp
0.0000000000000000e+00 5.0000000000000000e+00
0.0000000000000000e+00 5.0000000000000000e+01
-5.0000000000000000e-01 5.0000000000000000e-01
ITEM: ATOMS id type x y z
1 1 -1.73084e-12 1.62737e-08 -1.14368e-09
2 1 2.5 2.5 -1.33469e-09
3 1 -1.12419e-12 5 -1.42441e-09
4 1 2.5 7.5 -1.37403e-09
5 1 1.59899e-12 10 -1.37815e-09
6 1 2.5 12.5 -1.37753e-09
7 1 3.48351e-12 15 -1.37637e-09
8 1 2.5 17.5 -1.36973e-09
9 1 1.27408e-12 20 -1.37143e-09
10 1 2.5 22.5 -1.37608e-09
11 1 6.3169e-13 25 -1.14369e-09
12 1 2.5 27.5 -1.60992e-09
13 1 3.26472e-12 30 -1.37451e-09
14 1 2.5 32.5 -1.37584e-09
15 1 -2.93676e-12 35 -1.37094e-09
16 1 2.5 37.5 -1.3786e-09
17 1 1.47677e-12 40 -1.37681e-09
18 1 2.5 42.5 -1.42511e-09
19 1 -4.5746e-13 45 -1.5692e-09
20 1 2.5 47.5 -1.60639e-09
ITEM: TIMESTEP
26
ITEM: NUMBER OF ATOMS
20
ITEM: BOX BOUNDS pp pp pp
0.0000000000000000e+00 5.0000000000000000e+00
0.0000000000000000e+00 5.0000000000000000e+01
-5.0000000000000000e-01 5.0000000000000000e-01
ITEM: ATOMS id type x y z
1 1 -1.88812e-12 1.94433e-08 -1.14411e-09
2 1 2.5 2.5 -1.33451e-09
3 1 -1.22636e-12 5 -1.42455e-09
4 1 2.5 7.5 -1.37402e-09
5 1 1.74423e-12 10 -1.37851e-09
6 1 2.5 12.5 -1.37784e-09
7 1 3.80006e-12 15 -1.37658e-09
8 1 2.5 17.5 -1.36934e-09
9 1 1.38989e-12 20 -1.37119e-09
10 1 2.5 22.5 -1.37625e-09
11 1 6.89098e-13 25 -1.14391e-09
12 1 2.5 27.5 -1.61018e-09
13 1 3.56142e-12 30 -1.37455e-09
14 1 2.5 32.5 -1.37599e-09
15 1 -3.20367e-12 35 -1.37064e-09
16 1 2.5 37.5 -1.37901e-09
17 1 1.61096e-12 40 -1.37705e-09
18 1 2.5 42.5 -1.42531e-09
19 1 -4.99046e-13 45 -1.56918e-09
20 1 2.5 47.5 -1.60656e-09
ITEM: TIMESTEP
28
ITEM: NUMBER OF ATOMS
20
ITEM: BOX BOUNDS pp pp pp
0.0000000000000000e+00 5.0000000000000000e+00
0.0000000000000000e+00 5.0000000000000000e+01
-5.0000000000000000e-01 5.0000000000000000e-01
ITEM: ATOMS id type x y z
1 1 -2.04538e-12 2.28946e-08 -1.14456e-09
2 1 2.5 2.5 -1.33434e-09
3 1 -1.32852e-12 5 -1.4247e-09
4 1 2.5 7.5 -1.37402e-09
5 1 1.88943e-12 10 -1.37887e-09
6 1 2.5 12.5 -1.37815e-09
7 1 4.11657e-12 15 -1.3768e-09
8 1 2.5 17.5 -1.36895e-09
9 1 1.50569e-12 20 -1.37095e-09
10 1 2.5 22.5 -1.37643e-09
11 1 7.46501e-13 25 -1.14413e-09
12 1 2.5 27.5 -1.61046e-09
13 1 3.8581e-12 30 -1.37459e-09
14 1 2.5 32.5 -1.37614e-09
15 1 -3.47057e-12 35 -1.37034e-09
16 1 2.5 37.5 -1.37942e-09
17 1 1.74515e-12 40 -1.37729e-09
18 1 2.5 42.5 -1.42551e-09
19 1 -5.40632e-13 45 -1.56917e-09
20 1 2.5 47.5 -1.60674e-09
ITEM: TIMESTEP
30
ITEM: NUMBER OF ATOMS
20
ITEM: BOX BOUNDS pp pp pp
0.0000000000000000e+00 5.0000000000000000e+00
0.0000000000000000e+00 5.0000000000000000e+01
-5.0000000000000000e-01 5.0000000000000000e-01
ITEM: ATOMS id type x y z
1 1 -2.20262e-12 2.66275e-08 -1.14501e-09
2 1 2.5 2.5 -1.33418e-09
3 1 -1.43067e-12 5 -1.42485e-09
4 1 2.5 7.5 -1.37402e-09
5 1 2.0346e-12 10 -1.37924e-09
6 1 2.5 12.5 -1.37847e-09
7 1 4.43304e-12 15 -1.37703e-09
8 1 2.5 17.5 -1.36857e-09
9 1 1.62149e-12 20 -1.37073e-09
10 1 2.5 22.5 -1.37663e-09
11 1 8.03899e-13 25 -1.14436e-09
12 1 2.5 27.5 -1.61074e-09
13 1 4.15476e-12 30 -1.37465e-09
14 1 2.5 32.5 -1.3763e-09
15 1 -3.73745e-12 35 -1.37005e-09
16 1 2.5 37.5 -1.37984e-09
17 1 1.87931e-12 40 -1.37754e-09
18 1 2.5 42.5 -1.42573e-09
19 1 -5.82217e-13 45 -1.56917e-09
20 1 2.5 47.5 -1.60693e-09
ITEM: TIMESTEP
32
ITEM: NUMBER OF ATOMS
20
ITEM: BOX BOUNDS pp pp pp
0.0000000000000000e+00 5.0000000000000000e+00
0.0000000000000000e+00 5.0000000000000000e+01
-5.0000000000000000e-01 5.0000000000000000e-01
ITEM: ATOMS id type x y z
1 1 -2.35984e-12 3.06419e-08 -1.14545e-09
2 1 2.5 2.5 -1.33403e-09
3 1 -1.53281e-12 5 -1.425e-09
4 1 2.5 7.5 -1.37404e-09
5 1 2.17973e-12 10 -1.37961e-09
6 1 2.5 12.5 -1.3788e-09
7 1 4.74947e-12 15 -1.37728e-09
8 1 2.5 17.5 -1.3682e-09
9 1 1.73727e-12 20 -1.37051e-09
10 1 2.5 22.5 -1.37683e-09
11 1 8.61292e-13 25 -1.14459e-09
12 1 2.5 27.5 -1.61102e-09
13 1 4.45139e-12 30 -1.37471e-09
14 1 2.5 32.5 -1.37646e-09
15 1 -4.0043e-12 35 -1.36976e-09
16 1 2.5 37.5 -1.38026e-09
17 1 2.01347e-12 40 -1.37779e-09
18 1 2.5 42.5 -1.42595e-09
19 1 -6.23802e-13 45 -1.56918e-09
20 1 2.5 47.5 -1.60711e-09
ITEM: TIMESTEP
34
ITEM: NUMBER OF ATOMS
20
ITEM: BOX BOUNDS pp pp pp
0.0000000000000000e+00 5.0000000000000000e+00
0.0000000000000000e+00 5.0000000000000000e+01
-5.0000000000000000e-01 5.0000000000000000e-01
ITEM: ATOMS id type x y z
1 1 -2.51704e-12 3.49378e-08 -1.1459e-09
2 1 2.5 2.5 -1.33388e-09
3 1 -1.63494e-12 5 -1.42515e-09
4 1 2.5 7.5 -1.37405e-09
5 1 2.32482e-12 10 -1.38e-09
6 1 2.5 12.5 -1.37914e-09
7 1 5.06586e-12 15 -1.37753e-09
8 1 2.5 17.5 -1.36785e-09
9 1 1.85306e-12 20 -1.3703e-09
10 1 2.5 22.5 -1.37704e-09
11 1 9.18678e-13 25 -1.14483e-09
12 1 2.5 27.5 -1.61131e-09
13 1 4.74799e-12 30 -1.37479e-09
14 1 2.5 32.5 -1.37664e-09
15 1 -4.27114e-12 35 -1.36949e-09
16 1 2.5 37.5 -1.38069e-09
17 1 2.1476e-12 40 -1.37803e-09
18 1 2.5 42.5 -1.42617e-09
19 1 -6.65387e-13 45 -1.56919e-09
20 1 2.5 47.5 -1.6073e-09
ITEM: TIMESTEP
36
ITEM: NUMBER OF ATOMS
20
ITEM: BOX BOUNDS pp pp pp
0.0000000000000000e+00 5.0000000000000000e+00
0.0000000000000000e+00 5.0000000000000000e+01
-5.0000000000000000e-01 5.0000000000000000e-01
ITEM: ATOMS id type x y z
1 1 -2.67421e-12 3.95153e-08 -1.14635e-09
2 1 2.5 2.5 -1.33374e-09
3 1 -1.73706e-12 5 -1.42531e-09
4 1 2.5 7.5 -1.37407e-09
5 1 2.46987e-12 10 -1.3804e-09
6 1 2.5 12.5 -1.3795e-09
7 1 5.3822e-12 15 -1.37779e-09
8 1 2.5 17.5 -1.3675e-09
9 1 1.96883e-12 20 -1.3701e-09
10 1 2.5 22.5 -1.37726e-09
11 1 9.76059e-13 25 -1.14507e-09
12 1 2.5 27.5 -1.61161e-09
13 1 5.04456e-12 30 -1.37487e-09
14 1 2.5 32.5 -1.37683e-09
15 1 -4.53796e-12 35 -1.36922e-09
16 1 2.5 37.5 -1.38111e-09
17 1 2.28172e-12 40 -1.37828e-09
18 1 2.5 42.5 -1.42639e-09
19 1 -7.06972e-13 45 -1.56922e-09
20 1 2.5 47.5 -1.60748e-09
ITEM: TIMESTEP
38
ITEM: NUMBER OF ATOMS
20
ITEM: BOX BOUNDS pp pp pp
0.0000000000000000e+00 5.0000000000000000e+00
0.0000000000000000e+00 5.0000000000000000e+01
-5.0000000000000000e-01 5.0000000000000000e-01
ITEM: ATOMS id type x y z
1 1 -2.83136e-12 4.43742e-08 -1.1468e-09
2 1 2.5 2.5 -1.3336e-09
3 1 -1.83917e-12 5 -1.42548e-09
4 1 2.5 7.5 -1.3741e-09
5 1 2.61486e-12 10 -1.38081e-09
6 1 2.5 12.5 -1.37987e-09
7 1 5.69849e-12 15 -1.37805e-09
8 1 2.5 17.5 -1.36716e-09
9 1 2.0846e-12 20 -1.36991e-09
10 1 2.5 22.5 -1.37749e-09
11 1 1.03343e-12 25 -1.14531e-09
12 1 2.5 27.5 -1.61191e-09
13 1 5.3411e-12 30 -1.37496e-09
14 1 2.5 32.5 -1.37704e-09
15 1 -4.80475e-12 35 -1.36897e-09
16 1 2.5 37.5 -1.38154e-09
17 1 2.41581e-12 40 -1.37852e-09
18 1 2.5 42.5 -1.42662e-09
19 1 -7.48556e-13 45 -1.56926e-09
20 1 2.5 47.5 -1.60767e-09
ITEM: TIMESTEP
40
ITEM: NUMBER OF ATOMS
20
ITEM: BOX BOUNDS pp pp pp
0.0000000000000000e+00 5.0000000000000000e+00
0.0000000000000000e+00 5.0000000000000000e+01
-5.0000000000000000e-01 5.0000000000000000e-01
ITEM: ATOMS id type x y z
1 1 -2.98847e-12 4.95145e-08 -1.14725e-09
2 1 2.5 2.5 -1.33348e-09
3 1 -1.94127e-12 5 -1.42564e-09
4 1 2.5 7.5 -1.37412e-09
5 1 2.75981e-12 10 -1.38124e-09
6 1 2.5 12.5 -1.38026e-09
7 1 6.01472e-12 15 -1.37832e-09
8 1 2.5 17.5 -1.36683e-09
9 1 2.20037e-12 20 -1.36974e-09
10 1 2.5 22.5 -1.37772e-09
11 1 1.0908e-12 25 -1.14556e-09
12 1 2.5 27.5 -1.61221e-09
13 1 5.63761e-12 30 -1.37506e-09
14 1 2.5 32.5 -1.37726e-09
15 1 -5.07151e-12 35 -1.36872e-09
16 1 2.5 37.5 -1.38198e-09
17 1 2.54989e-12 40 -1.37876e-09
18 1 2.5 42.5 -1.42685e-09
19 1 -7.90139e-13 45 -1.56931e-09
20 1 2.5 47.5 -1.60785e-09
ITEM: TIMESTEP
42
ITEM: NUMBER OF ATOMS
20
ITEM: BOX BOUNDS pp pp pp
0.0000000000000000e+00 5.0000000000000000e+00
0.0000000000000000e+00 5.0000000000000000e+01
-5.0000000000000000e-01 5.0000000000000000e-01
ITEM: ATOMS id type x y z
1 1 -3.14556e-12 5.49362e-08 -1.14771e-09
2 1 2.5 2.5 -1.33337e-09
3 1 -2.04335e-12 5 -1.42581e-09
4 1 2.5 7.5 -1.37415e-09
5 1 2.90471e-12 10 -1.38168e-09
6 1 2.5 12.5 -1.38065e-09
7 1 6.3309e-12 15 -1.3786e-09
8 1 2.5 17.5 -1.36651e-09
9 1 2.31612e-12 20 -1.36957e-09
10 1 2.5 22.5 -1.37796e-09
11 1 1.14816e-12 25 -1.14582e-09
12 1 2.5 27.5 -1.61252e-09
13 1 5.93407e-12 30 -1.37517e-09
14 1 2.5 32.5 -1.37749e-09
15 1 -5.33825e-12 35 -1.3685e-09
16 1 2.5 37.5 -1.38242e-09
17 1 2.68394e-12 40 -1.37901e-09
18 1 2.5 42.5 -1.42707e-09
19 1 -8.31723e-13 45 -1.56937e-09
20 1 2.5 47.5 -1.60803e-09
ITEM: TIMESTEP
44
ITEM: NUMBER OF ATOMS
20
ITEM: BOX BOUNDS pp pp pp
0.0000000000000000e+00 5.0000000000000000e+00
0.0000000000000000e+00 5.0000000000000000e+01
-5.0000000000000000e-01 5.0000000000000000e-01
ITEM: ATOMS id type x y z
1 1 -3.30262e-12 6.06392e-08 -1.14818e-09
2 1 2.5 2.5 -1.33326e-09
3 1 -2.14542e-12 5 -1.42599e-09
4 1 2.5 7.5 -1.37419e-09
5 1 3.04956e-12 10 -1.38213e-09
6 1 2.5 12.5 -1.38107e-09
7 1 6.64702e-12 15 -1.37888e-09
8 1 2.5 17.5 -1.3662e-09
9 1 2.43186e-12 20 -1.36941e-09
10 1 2.5 22.5 -1.37821e-09
11 1 1.20551e-12 25 -1.14608e-09
12 1 2.5 27.5 -1.61284e-09
13 1 6.2305e-12 30 -1.37528e-09
14 1 2.5 32.5 -1.37773e-09
15 1 -5.60496e-12 35 -1.36828e-09
16 1 2.5 37.5 -1.38288e-09
17 1 2.81797e-12 40 -1.37927e-09
18 1 2.5 42.5 -1.42731e-09
19 1 -8.73305e-13 45 -1.56943e-09
20 1 2.5 47.5 -1.60821e-09
ITEM: TIMESTEP
46
ITEM: NUMBER OF ATOMS
20
ITEM: BOX BOUNDS pp pp pp
0.0000000000000000e+00 5.0000000000000000e+00
0.0000000000000000e+00 5.0000000000000000e+01
-5.0000000000000000e-01 5.0000000000000000e-01
ITEM: ATOMS id type x y z
1 1 -3.45965e-12 6.66235e-08 -1.14865e-09
2 1 2.5 2.5 -1.33317e-09
3 1 -2.24748e-12 5 -1.42618e-09
4 1 2.5 7.5 -1.37423e-09
5 1 3.19434e-12 10 -1.38259e-09
6 1 2.5 12.5 -1.38149e-09
7 1 6.96308e-12 15 -1.37917e-09
8 1 2.5 17.5 -1.3659e-09
9 1 2.5476e-12 20 -1.36925e-09
10 1 2.5 22.5 -1.37845e-09
11 1 1.26285e-12 25 -1.14636e-09
12 1 2.5 27.5 -1.61317e-09
13 1 6.5269e-12 30 -1.3754e-09
14 1 2.5 32.5 -1.37798e-09
15 1 -5.87164e-12 35 -1.36807e-09
16 1 2.5 37.5 -1.38335e-09
17 1 2.95197e-12 40 -1.37955e-09
18 1 2.5 42.5 -1.42755e-09
19 1 -9.14887e-13 45 -1.5695e-09
20 1 2.5 47.5 -1.6084e-09
ITEM: TIMESTEP
48
ITEM: NUMBER OF ATOMS
20
ITEM: BOX BOUNDS pp pp pp
0.0000000000000000e+00 5.0000000000000000e+00
0.0000000000000000e+00 5.0000000000000000e+01
-5.0000000000000000e-01 5.0000000000000000e-01
ITEM: ATOMS id type x y z
1 1 -3.61664e-12 7.28891e-08 -1.14914e-09
2 1 2.5 2.5 -1.33309e-09
3 1 -2.34952e-12 5 -1.42637e-09
4 1 2.5 7.5 -1.37428e-09
5 1 3.33907e-12 10 -1.38305e-09
6 1 2.5 12.5 -1.38192e-09
7 1 7.27908e-12 15 -1.37947e-09
8 1 2.5 17.5 -1.36561e-09
9 1 2.66333e-12 20 -1.36911e-09
10 1 2.5 22.5 -1.3787e-09
11 1 1.32018e-12 25 -1.14665e-09
12 1 2.5 27.5 -1.61351e-09
13 1 6.82324e-12 30 -1.37552e-09
14 1 2.5 32.5 -1.37823e-09
15 1 -6.13829e-12 35 -1.36787e-09
16 1 2.5 37.5 -1.38383e-09
17 1 3.08595e-12 40 -1.37985e-09
18 1 2.5 42.5 -1.4278e-09
19 1 -9.56469e-13 45 -1.56957e-09
20 1 2.5 47.5 -1.60859e-09
ITEM: TIMESTEP
50
ITEM: NUMBER OF ATOMS
20
ITEM: BOX BOUNDS pp pp pp
0.0000000000000000e+00 5.0000000000000000e+00
0.0000000000000000e+00 5.0000000000000000e+01
-5.0000000000000000e-01 5.0000000000000000e-01
ITEM: ATOMS id type x y z
1 1 -3.7736e-12 7.94359e-08 -1.14964e-09
2 1 2.5 2.5 -1.33302e-09
3 1 -2.45155e-12 5 -1.42659e-09
4 1 2.5 7.5 -1.37433e-09
5 1 3.48373e-12 10 -1.38351e-09
6 1 2.5 12.5 -1.38235e-09
7 1 7.595e-12 15 -1.37977e-09
8 1 2.5 17.5 -1.36532e-09
9 1 2.77904e-12 20 -1.36897e-09
10 1 2.5 22.5 -1.37896e-09
11 1 1.37751e-12 25 -1.14696e-09
12 1 2.5 27.5 -1.61386e-09
13 1 7.11955e-12 30 -1.37564e-09
14 1 2.5 32.5 -1.3785e-09
15 1 -6.40491e-12 35 -1.36768e-09
16 1 2.5 37.5 -1.38433e-09
17 1 3.2199e-12 40 -1.38016e-09
18 1 2.5 42.5 -1.42805e-09
19 1 -9.9805e-13 45 -1.56965e-09
20 1 2.5 47.5 -1.6088e-09
ITEM: TIMESTEP
52
ITEM: NUMBER OF ATOMS
20
ITEM: BOX BOUNDS pp pp pp
0.0000000000000000e+00 5.0000000000000000e+00
0.0000000000000000e+00 5.0000000000000000e+01
-5.0000000000000000e-01 5.0000000000000000e-01
ITEM: ATOMS id type x y z
1 1 -3.93052e-12 8.62638e-08 -1.15016e-09
2 1 2.5 2.5 -1.33296e-09
3 1 -2.55356e-12 5 -1.42681e-09
4 1 2.5 7.5 -1.3744e-09
5 1 3.62833e-12 10 -1.38397e-09
6 1 2.5 12.5 -1.3828e-09
7 1 7.91086e-12 15 -1.38008e-09
8 1 2.5 17.5 -1.36505e-09
9 1 2.89475e-12 20 -1.36884e-09
10 1 2.5 22.5 -1.37922e-09
11 1 1.43482e-12 25 -1.14727e-09
12 1 2.5 27.5 -1.61423e-09
13 1 7.41581e-12 30 -1.37578e-09
14 1 2.5 32.5 -1.37877e-09
15 1 -6.67149e-12 35 -1.36748e-09
16 1 2.5 37.5 -1.38483e-09
17 1 3.35383e-12 40 -1.38049e-09
18 1 2.5 42.5 -1.42832e-09
19 1 -1.03963e-12 45 -1.56974e-09
20 1 2.5 47.5 -1.60901e-09
