ITEM: TIMESTEP
0
ITEM: NUMBER OF ATOMS
0
ITEM: BOX BOUNDS pp pp ff
-3.0000000000000000e+00 3.0000000000000000e+00
-3.0000000000000000e+00 3.0000000000000000e+00
0.0000000000000000e+00 1.7000000000000000e+01
ITEM: ATOMS x y z radius
