ITEM: TIMESTEP
500
ITEM: NUMBER OF ATOMS
844
ITEM: BOX BOUNDS pp pp ff
-3.0000000000000000e+00 3.0000000000000000e+00
-3.0000000000000000e+00 3.0000000000000000e+00
0.0000000000000000e+00 1.7000000000000000e+01
ITEM: ATOMS x y z radius
1.38274 1.22819 1.51251 0.5
1.14735 1.12145 0.444624 0.5
1.99671 -0.149094 0.0723931 0.1
-1.50784 1.26334 0.0985764 0.1
0.320389 1.38798 0.836716 0.1
2.5726 -2.85896 1.66783 0.1
0.328036 1.51664 1.07131 0.1
-1.42379 -1.21727 3.29509 0.15
-1.84444 -2.48998 2.76752 0.15
-2.88102 -0.557225 0.591246 0.1
1.40078 -1.03229 2.5667 0.1
1.58661 0.330972 1.49882 0.1
1.21852 0.17349 2.21793 0.1
-0.168753 2.13573 1.12681 0.1
-1.23563 0.756453 0.720352 0.1
-1.88919 0.558853 1.84679 0.1
-2.59885 0.502877 1.36003 0.5
-0.580134 -1.43775 1.07424 0.5
0.652339 1.8055 0.568799 0.5
-1.96887 -2.82598 4.01391 0.1
0.35798 1.46472 3.07219 0.1
0.431446 -0.247672 0.711526 0.1
-1.24233 -1.25004 2.11822 0.1
-1.25533 -1.8157 2.19315 0.1
0.364555 -0.810738 0.620861 0.1
2.69545 -0.293615 1.9059 0.1
-1.20756 1.38568 0.160032 0.1
-1.00773 -2.25258 1.74805 0.5
-0.216817 0.392941 2.08081 0.1
-1.08476 -2.69666 0.0186077 0.1
-0.553858 0.78673 0.305635 0.5
-0.411843 2.48013 1.92517 0.5
-0.855549 1.85033 1.28908 0.1
0.338015 -0.579871 1.75465 0.15
-0.311084 0.242945 1.02319 0.1
-0.452039 1.52306 3.09284 0.1
-0.326964 0.0341659 0.682712 0.1
2.42892 2.97033 2.2711 0.1
0.642161 0.84987 1.82643 0.1
-0.916577 -1.0232 1.38585 0.1
2.88407 -2.38229 0.464631 0.1
0.796545 -0.210688 1.95983 0.1
2.49115 -1.04784 0.591232 0.1
0.154882 -0.474207 2.75913 0.1
-1.23265 -2.37223 0.96001 0.1
1.70857 0.648413 0.725133 0.5
1.14363 -1.68572 1.42101 0.1
-0.354943 -1.07183 1.6846 0.1
1.13588 2.33476 2.50728 0.1
0.855869 -1.60335 1.14601 0.1
-2.38826 1.8197 1.31614 0.1
-1.33995 -1.57056 0.643642 0.1
1.98128 -0.363663 0.772294 0.5
-2.34849 -0.376749 1.08651 0.1
-0.0748482 1.75022 4.22893 0.1
0.427867 -0.649505 2.44613 0.1
1.00471 0.384446 2.52879 0.1
0.404659 0.885548 1.66406 0.1
1.89447 -0.508034 0.262256 0.1
-0.207192 1.57125 0.731385 0.5
0.835576 1.30911 1.3842 0.1
-0.809866 -0.725966 0.997749 0.15
0.365005 2.14122 2.74912 0.1
0.0607824 1.22421 3.67191 0.1
2.05802 -0.724447 0.213625 0.1
0.611962 -2.38449 0.512449 0.5
0.848006 -1.1009 3.29016 0.1
-1.95322 2.06242 4.09598 0.1
-1.13403 2.11118 1.1343 0.1
0.283805 -0.401494 1.80429 0.1
0.302057 0.14748 2.14101 0.1
-0.259038 -0.43418 2.87649 0.1
-1.45424 0.334848 0.36895 0.5
0.478973 2.61083 0.693807 0.1
-0.958056 1.31846 1.62172 0.1
-0.29727 -0.530394 1.49607 0.5
-1.91501 1.76355 2.88673 0.1
1.85926 -1.9586 2.70426 0.1
0.967222 0.101985 3.10557 0.1
0.279644 0.378168 2.53518 0.1
-1.90961 -2.58007 3.84772 0.1
0.0260674 -0.64695 3.39443 0.1
2.41908 1.11493 2.44136 0.1
0.607869 2.46543 0.923139 0.1
-0.906715 -2.07052 0.230696 0.1
-2.3648 -0.950397 0.455206 0.1
1.22559 -2.08862 1.07612 0.5
-1.23589 1.28655 1.06498 0.1
1.31011 -2.04434 0.417484 0.1
-2.47831 -0.385096 3.02454 0.1
0.124327 -1.75475 1.64898 0.1
-0.653622 2.28725 1.44115 0.1
-0.777559 1.78578 2.95712 0.1
-0.147376 -0.682922 0.52847 0.5
-0.23227 -0.71909 2.25265 0.1
0.206149 0.000557354 1.88922 0.1
2.22257 2.9853 0.581809 0.1
0.782551 2.84124 1.71021 0.1
1.22264 -0.404567 1.14212 0.5
1.58832 -1.11227 2.66408 0.1
-0.988411 0.811709 0.138656 0.1
-1.66047 1.78433 0.378897 0.5
-0.551407 0.507351 3.84429 0.1
0.040535 2.6557 1.33209 0.1
-2.99196 -0.315885 3.05217 0.1
0.133136 1.67332 1.25874 0.1
0.97667 2.63088 2.49433 0.1
-0.570717 1.56617 3.61499 0.5
-1.43443 -1.79573 3.15263 0.5
-0.986459 -1.364 3.21149 0.1
-0.76848 1.44854 0.869955 0.1
-1.96952 -0.445087 0.96402 0.1
-0.827047 -2.00862 3.21318 0.1
0.765333 -2.59807 2.65578 0.1
0.985946 1.72603 0.985906 0.15
-0.629725 1.07143 2.57228 0.5
1.80211 -1.97641 1.80462 0.1
2.18015 -0.81621 0.377702 0.1
0.61027 0.785332 2.36125 0.1
-2.06423 0.476055 2.12129 0.1
2.93465 -0.759497 2.63534 0.1
-2.04911 -2.04173 0.0960367 0.1
0.344766 -2.28154 4.15274 0.1
1.90099 -0.570458 1.96337 0.5
1.4085 -2.11804 2.2307 0.1
2.34943 0.264112 1.78621 0.1
0.243637 -0.694463 1.65986 0.1
-1.87975 -0.319432 1.01383 0.1
-2.7016 -0.34804 2.59403 0.1
-0.848514 1.6556 4.05381 0.1
2.34761 -0.46257 1.76356 0.1
-1.34832 -1.64324 0.400136 0.1
-1.68675 -1.31719 1.17812 0.5
-1.56358 0.781313 1.80069 0.1
-1.4099 -0.704671 0.400701 0.1
-2.19207 0.541255 1.89673 0.1
2.2141 -0.370835 0.326608 0.1
0.451813 -1.4118 1.18417 0.1
0.723605 -0.780663 1.12023 0.1
-0.400175 -0.579959 2.68032 0.15
-0.296224 -0.705289 3.29315 0.1
1.46166 -2.25218 2.3009 0.1
-1.63202 -2.00751 0.662413 0.5
-0.57332 0.898127 1.3338 0.5
1.71915 1.16862 0.181544 0.1
-0.0792444 2.11612 0.572868 0.1
-2.67785 1.47965 2.61224 0.1
0.480466 -0.450627 0.688133 0.1
0.661703 0.925736 1.63917 0.1
-1.70216 1.26609 0.856507 0.1
1.33434 2.1005 0.81214 0.1
2.33322 1.34539 0.223322 0.1
-1.2766 -0.477803 1.1476 0.1
-1.34958 2.34797 2.63667 0.1
-1.59616 -1.03166 2.55302 0.5
-1.15068 0.99359 0.75228 0.1
1.08944 -1.03341 0.478853 0.5
0.726519 0.332799 1.86998 0.5
0.424309 -2.84742 1.67505 0.1
-2.27554 -1.23583 3.43788 0.1
2.32286 -1.01524 1.63405 0.1
-2.06033 -2.07772 3.45603 0.1
1.14685 -0.911918 2.58795 0.1
-0.608893 1.86382 0.37834 0.1
-0.638289 -0.96401 0.220925 0.1
-0.975889 2.52557 1.02511 0.1
2.05247 -1.84558 0.699169 0.1
-1.06085 -1.44229 1.65842 0.15
-1.7478 0.205072 1.94697 0.1
-2.85507 2.16459 0.947158 0.1
-1.35668 -0.352714 0.0925793 0.1
-1.71197 1.6215 1.18659 0.1
1.56023 -1.47229 4.21829 0.1
-0.643519 0.349509 1.56944 0.1
-1.78066 0.450079 3.72053 0.1
-2.70198 -0.314629 3.87293 0.1
1.7695 -1.67193 1.51267 0.15
-2.42174 -0.586641 0.932464 0.1
0.58867 0.410015 0.51707 0.5
-1.29742 1.31046 0.224347 0.1
-0.684101 -2.83826 2.12398 0.1
-1.54457 0.72045 3.42931 0.1
-1.35037 -0.104513 1.0499 0.1
-2.02239 -1.32412 0.446679 0.1
-1.11282 2.10762 1.32523 0.1
-1.40604 -1.94238 1.19684 0.15
-0.607705 -0.0436399 3.12687 0.1
-0.517915 2.3059 0.437323 0.1
2.44403 1.51914 0.114004 0.1
-2.31526 -2.18355 1.77663 0.1
-2.29333 -1.33511 1.00453 0.1
2.47326 1.11867 1.0136 0.1
-1.08176 2.54209 1.11772 0.1
-0.618631 -1.59909 0.115851 0.1
-0.587952 -2.79827 2.68963 0.1
-1.8346 0.639068 1.63493 0.1
-1.52742 0.878054 0.550352 0.1
-2.22716 1.52419 1.0109 0.1
0.281582 -2.17611 1.42919 0.5
-2.61006 0.388895 0.447092 0.1
0.0713687 1.10707 0.966733 0.1
0.556864 -0.793667 1.80013 0.1
-0.0902005 1.22673 0.219421 0.15
-0.00765215 1.664 3.81749 0.1
0.996269 -0.147297 0.582056 0.1
-1.51725 -0.429035 3.65166 0.1
-1.36501 1.07585 0.651694 0.15
-0.479292 -1.96388 1.64446 0.1
0.399091 -1.00966 0.645597 0.1
0.221899 1.45947 2.14672 0.1
2.76495 -2.67869 0.736757 0.1
-1.61764 0.246512 2.86689 0.1
0.18118 -1.16154 3.87585 0.1
-0.958734 -0.759862 1.36087 0.15
-1.16028 -0.0367839 3.14395 0.15
2.13604 1.82773 0.639195 0.1
-0.0985373 0.116509 1.34328 0.1
0.171327 0.796669 0.309535 0.1
0.364108 -1.45864 0.275767 0.1
-1.04138 -0.940641 2.03623 0.1
-0.459066 -2.64929 0.562057 0.5
2.40886 0.536069 0.172022 0.5
-0.966277 -1.54665 1.82156 0.1
-0.985801 -1.77463 2.3225 0.1
-1.22553 -2.36651 0.555517 0.1
-1.18375 -0.174075 1.25904 0.1
1.00681 1.42358 3.41718 0.1
0.731177 -1.15068 2.19964 0.1
-0.785869 1.45966 3.09068 0.15
2.54123 1.53629 3.0767 0.1
-1.36758 -0.316208 2.03467 0.1
-2.0978 2.84564 0.817967 0.1
-0.117386 -0.161213 3.02346 0.1
0.868814 -1.76649 0.622033 0.1
-1.14818 -1.66653 1.45241 0.15
-0.0131227 1.41673 2.12143 0.1
0.418559 2.72588 1.65794 0.1
1.80434 0.357297 1.79018 0.1
-2.43735 -0.496965 0.940182 0.1
-0.854988 0.131377 0.932735 0.5
0.493187 -0.613029 0.935937 0.1
-1.51533 -0.90766 0.767136 0.1
-0.183022 -1.12058 3.01051 0.1
-0.949704 1.27419 0.322718 0.1
-0.12381 -0.658126 2.35081 0.1
-0.740066 -1.21325 2.15761 0.1
-1.69665 -2.39563 1.36556 0.1
1.46388 0.346011 2.67734 0.5
-2.83466 -2.62827 3.56836 0.1
2.30102 1.10713 1.52449 0.1
-1.75153 -0.0585071 2.43402 0.1
1.57822 0.313783 1.82245 0.1
1.49164 0.490931 1.17733 0.1
0.519046 -0.399568 1.22276 0.1
-1.10212 -2.7543 0.132643 0.1
0.759115 0.870383 1.94747 0.1
0.632331 -1.53734 1.37767 0.1
-1.12691 0.091427 1.47466 0.1
2.59045 2.26004 1.89996 0.1
-0.0422507 -0.280039 1.902 0.1
-2.04287 0.101612 2.79638 0.1
1.57651 0.971141 2.54856 0.1
-1.87351 -0.156846 1.83514 0.1
-1.48333 0.30815 2.42344 0.1
0.0872998 -1.12423 3.92486 0.1
-0.942509 -0.537231 2.38178 0.5
1.13118 1.43727 2.82565 0.15
-0.244606 -0.318862 2.26354 0.1
-1.01978 0.11412 2.26166 0.1
-0.279761 0.22692 2.54529 0.5
0.293558 -1.69142 1.84062 0.1
0.344683 -1.48727 2.33399 0.1
0.407359 1.41372 2.36295 0.1
0.543582 1.12699 2.33678 0.15
1.24192 1.00127 2.33137 0.1
-1.80495 0.95627 2.39878 0.5
0.79451 1.33071 2.32605 0.1
1.90722 0.978368 2.36112 0.1
0.381571 0.877501 3.98392 0.1
-1.2695 0.946141 2.57426 0.1
-0.26828 -1.91362 2.69959 0.5
1.12318 1.29452 2.43255 0.1
1.65876 1.00628 3.11282 0.1
-1.71335 -0.235975 2.66836 0.1
0.80179 0.873793 2.45858 0.1
0.583333 -0.18286 2.45601 0.5
0.94259 -0.66872 3.03681 0.1
0.792755 1.1578 2.46944 0.1
-0.0549342 -0.306883 3.11582 0.1
0.885699 -1.7747 2.4642 0.5
-0.117971 -0.808441 3.62547 0.1
-0.0088793 -1.23438 2.49969 0.1
-0.818305 -1.25937 2.46072 0.1
0.223509 -1.59121 2.47014 0.1
-0.743478 0.390043 3.53606 0.1
0.822058 0.330325 2.80947 0.1
0.480309 0.553105 2.51139 0.1
0.969154 1.03877 3.08369 0.1
-1.65602 -0.413369 3.06221 0.15
-2.25332 1.59324 3.66224 0.1
-1.57163 -0.750249 2.99863 0.1
-0.767569 -0.537368 3.53891 0.1
-0.143724 0.429681 3.7209 0.1
-1.33821 0.702035 3.88474 0.1
-0.119152 1.4089 3.99008 0.1
-0.292205 0.906472 4.00601 0.1
1.41068 1.29324 4.06725 0.1
1.35913 -1.10096 4.0993 0.1
-0.862289 -0.492503 4.10251 0.1
-0.501887 0.781522 4.11755 0.1
0.694454 -0.314679 4.13721 0.1
-1.08532 -0.0484878 4.22409 0.1
1.65855 -0.68886 6.05581 0.1
-1.26007 1.12727 5.53626 0.1
-0.905538 0.624029 5.88177 0.1
-0.554793 -0.401154 6.45838 0.1
-0.867026 -1.80946 6.49373 0.5
1.58915 0.805078 5.86153 0.15
-0.0444036 2.38396 4.69222 0.1
-0.212303 -1.42255 5.02127 0.1
-0.462422 0.0767097 6.08464 0.1
-1.29094 -0.787341 6.76365 0.1
1.50428 -0.0536878 7.68199 0.1
-1.6327 -0.734926 6.66953 0.1
1.08498 1.42539 5.99922 0.1
-0.486153 1.23357 6.06834 0.1
0.500927 -0.917053 6.0778 0.1
-0.464593 -0.408321 6.06127 0.1
-2.17779 -1.03204 4.54536 0.1
0.139461 -0.0710128 6.04659 0.15
0.293525 1.26641 7.04527 0.1
-0.599493 0.326847 5.92348 0.1
-0.304026 -1.75996 5.76256 0.1
0.957011 0.479318 5.96961 0.1
1.21768 1.51079 6.09514 0.1
0.686425 0.747195 6.00718 0.1
0.550803 1.34805 6.08422 0.1
-1.80232 0.432966 7.0399 0.15
-1.25707 -1.43666 5.83964 0.1
0.263354 2.28347 5.27097 0.1
-0.631424 -0.344856 7.15041 0.1
1.01754 -0.9646 5.35801 0.1
1.05602 1.62561 6.00755 0.1
1.20495 -0.321627 6.08498 0.15
1.88353 0.456531 7.32552 0.1
1.09617 -0.701641 5.958 0.1
-0.272852 2.81407 5.23751 0.1
-2.84808 -1.56749 4.69326 0.1
-2.4123 0.331961 4.7649 0.1
-1.69806 0.680251 5.97441 0.1
0.492106 -1.16736 5.92278 0.1
-0.097894 -1.30497 6.00725 0.1
0.605199 2.25373 5.01808 0.1
0.825043 1.74974 4.42268 0.1
-0.0251924 0.591373 6.01081 0.5
-1.9247 -0.440434 6.06062 0.1
-1.27775 -2.1718 5.24026 0.1
-1.43565 -0.988867 5.98927 0.1
2.01431 0.188044 6.11534 0.5
1.50919 0.873502 5.33021 0.1
-1.61867 -0.9576 5.0896 0.1
-1.15328 1.96009 5.39547 0.1
-1.20109 -0.303343 6.12815 0.5
-1.5067 0.811243 5.67069 0.1
-1.47992 -1.00385 8.14019 0.1
1.12432 0.381062 4.66027 0.1
-0.445573 2.52316 4.37802 0.1
0.0529504 -0.929427 5.83874 0.1
1.76257 -0.462857 6.07817 0.1
-0.00820574 -1.91392 8.41038 0.1
-0.0628931 -1.04513 5.91099 0.1
-1.20835 0.701603 4.74392 0.15
0.543389 0.746206 8.23139 0.1
-1.18917 1.60778 6.07251 0.1
1.67211 0.444862 4.44794 0.1
0.30546 -1.92895 5.92079 0.5
-1.19894 1.34149 6.05617 0.1
0.685974 1.16798 6.02281 0.1
-0.274021 -1.46952 5.75972 0.15
-0.771966 1.56821 6.02928 0.1
0.18396 -0.186015 4.30798 0.1
0.469892 1.4683 5.15166 0.1
0.285196 1.29352 5.88899 0.1
-1.16423 0.816352 5.65616 0.1
-0.838116 1.78328 5.51525 0.1
-0.587127 -0.730517 5.97598 0.1
1.35066 0.528496 6.08564 0.1
0.509278 -0.561357 5.68633 0.1
-1.58988 -1.11931 4.34033 0.1
-0.470104 -1.03462 8.29231 0.15
-1.73384 -0.668411 6.02228 0.1
0.015629 -1.32409 5.64908 0.1
-0.757403 -1.01454 5.42788 0.1
0.444275 1.46695 5.87386 0.1
-1.1779 -0.674299 5.25319 0.1
0.17421 2.21418 6.94037 0.1
1.26291 2.23627 5.26744 0.1
0.545102 1.40775 4.71061 0.1
2.26057 -0.434493 5.70761 0.1
1.6107 -0.976841 7.65907 0.15
0.110038 1.40269 4.84479 0.1
0.596411 -0.124388 5.43009 0.1
-0.226108 -1.58695 5.34861 0.1
0.247261 -0.276829 4.65177 0.1
0.0299743 -0.222449 5.64338 0.1
0.988996 1.68232 7.17914 0.1
0.170332 -1.23739 6.08079 0.1
0.700274 1.50774 5.00455 0.1
0.407886 -0.664356 4.8394 0.1
0.556541 1.79083 5.25357 0.1
-1.13687 1.66353 4.79585 0.1
-0.320357 -0.238497 5.2329 0.1
1.86133 -0.670382 5.87603 0.1
-0.18407 1.80417 5.81022 0.5
1.94117 1.04483 6.17702 0.1
2.57791 -0.961195 5.04797 0.1
0.66655 -1.30153 5.34932 0.1
0.317904 -0.989815 5.7941 0.15
0.218917 -0.656499 5.04724 0.1
-0.479795 0.0785354 5.08483 0.1
-1.91925 0.333738 4.98111 0.5
0.639528 0.552232 5.90054 0.1
-0.274903 -0.301428 6.04125 0.1
1.02665 -1.17162 4.99789 0.1
-0.65039 0.89063 5.9967 0.1
1.12861 0.566452 5.81862 0.1
-0.737386 -1.24104 6.07864 0.1
1.20749 -1.34091 6.07789 0.5
1.2495 0.332139 6.03578 0.1
-2.43869 -0.352948 4.37761 0.1
-1.88694 2.50238 4.47141 0.1
1.58321 2.2943 5.49495 0.1
1.21762 -0.079417 7.39979 0.1
1.98716 0.964169 4.63346 0.1
0.81635 0.397853 8.14138 0.1
1.58652 0.660974 8.23563 0.1
-2.89233 0.0959972 4.38188 0.1
2.03962 -1.87919 7.52934 0.1
-0.717821 -0.411247 5.28823 0.1
1.23238 0.563898 5.1939 0.1
-1.61232 0.0493286 4.46746 0.1
-0.458851 0.085803 4.50012 0.1
0.763756 0.449297 4.61956 0.1
0.715577 -1.29426 4.61565 0.15
1.1709 -0.693908 4.65732 0.1
-0.815398 -0.397749 4.6474 0.1
0.68133 -0.884618 4.73842 0.1
-0.095413 0.394141 4.72657 0.1
-0.237061 -0.291248 4.74497 0.1
-0.82973 -1.27802 4.77419 0.5
-0.523784 0.75928 4.8567 0.1
-0.98956 0.463982 4.83188 0.1
2.74372 -0.510631 5.17925 0.1
-1.20589 -0.914041 5.3538 0.1
-0.425097 -0.603355 4.93335 0.1
-1.24494 0.305735 4.94238 0.1
-0.54189 0.45295 4.98234 0.1
-0.100001 -0.709558 5.16889 0.1
1.77643 0.509967 8.44077 0.1
1.20768 1.51185 8.4706 0.1
-0.3706 -0.678727 9.01956 0.1
0.238869 -1.33186 8.99621 0.1
0.580299 1.08145 10.0898 0.5
0.750398 -0.0605615 8.95665 0.1
0.18851 0.281213 9.33378 0.1
-1.43899 -1.04558 10.5089 0.1
-0.339233 -1.48648 10.6529 0.1
1.70861 0.678613 10.5018 0.1
-1.06275 -1.68521 9.68376 0.1
-0.943915 -0.361288 8.75739 0.1
-0.969301 0.963889 9.49692 0.5
0.207472 -1.02515 9.64211 0.1
1.20801 -0.968655 10.6281 0.1
-0.440721 0.79566 11.9928 0.1
0.525913 -0.982034 9.56149 0.1
0.146823 -0.341499 9.81251 0.1
-1.43536 -0.112037 9.94347 0.1
1.53153 0.444433 9.83118 0.1
-1.68435 -0.92515 9.54314 0.5
-1.39624 1.38616 9.89129 0.1
1.30568 0.495184 9.9614 0.1
1.32657 -0.406128 9.21287 0.1
1.75167 0.320962 9.28463 0.1
-0.475784 -0.506184 9.86731 0.1
-1.28562 0.511845 9.09577 0.1
0.0329417 1.65143 10.627 0.1
-0.670207 -0.174789 9.20493 0.1
0.476616 -1.52249 10.5894 0.15
0.856446 -1.71688 10.1126 0.1
-0.746034 1.40087 10.3083 0.1
-0.00700648 -1.75785 10.3759 0.1
-1.06605 -1.12129 10.5152 0.1
0.866931 -1.4919 10.3508 0.1
0.4423 1.74171 10.2436 0.1
1.29046 0.749034 10.3062 0.1
-0.980863 -1.3724 10.4424 0.1
-0.207579 -0.783619 12.6638 0.1
-1.02781 1.55645 10.4796 0.1
-0.502068 1.73769 10.5957 0.1
1.89492 -0.046113 12.6541 0.1
1.02738 -0.811123 9.49322 0.1
-0.359899 -0.827666 10.5857 0.1
-0.158647 1.61865 12.2018 0.1
0.786115 0.227314 10.1414 0.1
-0.0194576 0.976491 9.2048 0.1
0.737338 0.43254 12.114 0.1
-0.0890823 -1.20555 9.28724 0.1
1.19166 0.242199 9.19247 0.1
-0.773789 -1.07143 9.12745 0.1
0.214159 -0.629502 9.47782 0.1
1.06989 1.60193 12.4005 0.5
-0.504859 -1.16602 9.8793 0.1
1.77476 0.460009 10.0329 0.1
-0.730283 -1.86129 10.8113 0.1
-0.334071 1.27211 9.28438 0.1
1.70093 -0.451816 10.4026 0.1
-0.679325 -1.42164 10.3252 0.1
1.15953 0.196955 9.60304 0.1
0.740093 -1.2625 9.68357 0.1
-0.14445 0.236511 9.6872 0.1
0.657167 1.00236 11.7373 0.1
0.276213 -1.68353 8.74379 0.1
0.688859 1.65381 9.38793 0.1
-0.647632 -0.749339 9.28065 0.1
-1.17452 -0.0997634 9.96755 0.1
-0.957733 -0.617078 11.0039 0.15
1.04305 -1.38054 10.2496 0.1
-1.71833 0.0382489 10.3507 0.1
1.83235 0.386603 11.6063 0.1
-0.840778 1.04925 11.4986 0.1
-1.60905 0.648629 9.93161 0.1
1.85466 -0.734536 9.43905 0.1
1.05168 -0.393296 9.59457 0.1
-1.54862 0.389862 11.0037 0.1
0.375084 0.0363008 9.55104 0.1
-1.89753 0.176214 12.3865 0.1
0.226355 0.356758 12.6302 0.1
-0.142308 0.230296 12.4984 0.1
0.915466 -1.76862 11.197 0.5
1.43488 0.028462 9.95679 0.1
0.734427 -0.491284 10.3248 0.5
0.0520522 -1.15832 11.271 0.1
-0.790013 -1.74436 11.5285 0.1
-1.56953 0.884046 10.7489 0.1
0.262449 -1.02155 10.7593 0.1
-1.08518 1.35737 10.7635 0.1
-1.04578 -0.371629 10.7791 0.1
1.42302 0.762339 10.8056 0.1
0.57358 0.156616 10.7767 0.1
-0.502161 0.188163 10.813 0.1
0.296504 -0.651021 10.925 0.1
0.268689 -0.147418 10.9295 0.1
1.4732 0.0334031 10.9706 0.5
-1.42245 0.952377 10.9538 0.1
-0.748276 -0.268632 10.9655 0.1
0.786744 -1.18765 10.9877 0.1
0.454875 1.08671 11.0139 0.1
-0.678193 1.6047 11.0578 0.1
-1.35276 0.222194 11.0477 0.1
1.66284 -0.582109 11.0484 0.1
-0.677335 0.0384973 11.0925 0.1
1.57071 -1.0334 11.172 0.1
0.986664 -1.13423 11.1597 0.1
1.03728 1.58948 11.2032 0.5
-0.852227 0.620216 11.3061 0.1
-0.290742 1.49429 11.303 0.1
-0.639078 -0.990456 11.2904 0.1
-0.014536 -0.306111 11.2736 0.1
-0.740633 0.18707 11.352 0.1
-1.47297 -0.158912 11.3152 0.1
-0.139795 -1.53154 11.32 0.1
-1.87521 -0.641074 11.3503 0.5
-0.276131 -0.938656 11.3406 0.1
-0.222229 0.991729 11.3176 0.1
-1.8497 0.0238216 11.3749 0.1
1.25643 0.876639 11.3596 0.1
-1.06186 1.25743 11.3758 0.1
-0.692185 -1.55688 11.3966 0.1
-0.19966 0.315499 11.3635 0.1
-1.41888 0.899955 11.4105 0.1
0.534714 -1.06675 11.4238 0.15
0.774428 -0.184063 11.4631 0.1
1.51624 -0.602146 11.4737 0.1
-0.0815443 1.48477 11.5692 0.1
0.550299 0.869615 11.5409 0.1
0.267118 1.45208 11.5449 0.1
0.490264 -0.126164 11.5916 0.1
-1.56101 0.0391713 11.6025 0.1
-0.791541 0.569657 11.6359 0.1
0.141232 1.68979 11.6647 0.1
-1.7973 0.767198 11.6424 0.1
0.722269 -0.824136 11.6805 0.15
1.89823 -0.444424 11.6779 0.1
0.306647 1.82302 11.6773 0.1
0.154433 -0.450267 11.6838 0.1
-1.92275 0.341003 11.7399 0.1
-1.33651 1.35002 11.7523 0.15
-0.330951 1.70778 11.763 0.1
-1.24571 -0.653543 11.7979 0.1
1.60506 0.203721 11.7743 0.1
1.7416 -0.927842 11.8116 0.1
-0.329304 1.3796 11.8454 0.1
0.272443 -1.048 11.8209 0.1
-0.0585974 -0.845686 11.8365 0.15
0.44534 0.836037 11.8383 0.1
-0.235367 0.192729 11.8785 0.1
1.13526 0.254971 11.8748 0.1
0.061882 0.0504528 11.9299 0.1
0.0438231 0.534493 11.9028 0.15
-1.68978 -0.211107 11.9202 0.1
1.61152 0.811531 11.9109 0.15
0.592289 -1.4041 11.9253 0.1
0.503863 0.428769 11.9229 0.1
0.907731 0.231408 11.9613 0.1
-0.745872 0.126328 11.9404 0.1
0.950349 0.512556 11.9843 0.1
0.424687 1.71437 11.9897 0.1
1.141 0.732754 12.0179 0.1
0.338566 -1.72426 11.9803 0.1
-0.187015 0.843593 12.0236 0.1
-0.717695 1.70823 12.0237 0.1
0.183415 -1.34334 12.0216 0.1
1.12214 -0.241838 12.0442 0.1
-1.32738 -1.35279 12.0383 0.5
1.52958 -0.354315 12.0603 0.1
0.310775 -0.798098 12.0555 0.1
-0.508741 1.58807 12.0609 0.1
0.124689 -0.356817 12.0251 0.1
0.172423 1.91581 12.0783 0.1
1.6871 -0.969615 12.1085 0.1
0.967867 -1.05683 12.0925 0.1
-0.395387 -1.26378 12.1084 0.1
0.493434 1.14784 12.1044 0.1
1.17671 0.958456 12.1092 0.1
0.448108 -0.651067 12.108 0.1
1.43412 -0.825222 12.1011 0.1
-1.55096 0.95188 12.1069 0.1
1.82833 0.765802 12.1003 0.1
-0.372914 0.432545 12.0901 0.1
0.385464 -1.50779 12.092 0.1
-1.26277 0.670026 12.1037 0.1
-0.618581 -0.496535 12.0709 0.5
-1.11642 0.397487 12.0704 0.1
-0.941455 0.97069 12.0903 0.1
-1.86491 0.512713 12.0734 0.1
0.41197 -0.0123528 12.0821 0.15
1.29209 0.231955 12.1187 0.1
0.463229 1.48141 12.1177 0.1
-1.15118 0.177743 12.1177 0.1
-0.236495 1.23244 12.1151 0.1
1.69024 -0.0694946 12.1108 0.1
0.656865 -0.0752653 12.1158 0.1
-0.980068 -0.00283728 12.112 0.1
1.46052 -1.06398 12.1148 0.1
1.29485 -1.38773 12.118 0.1
0.687223 -1.83584 12.1133 0.1
0.411906 -1.10166 12.1184 0.1
-0.329025 -1.92896 12.113 0.5
-1.10506 -0.798886 14.2683 0.1
0.834963 1.22337 14.5769 0.1
1.30951 0.996926 13.9042 0.1
1.83926 0.510232 13.0648 0.1
1.70501 0.121047 16.5752 0.1
-1.754 0.579656 14.0933 0.1
-0.611344 1.13936 14.5555 0.1
0.102507 -1.16538 13.9825 0.1
0.472515 1.56692 14.0732 0.1
-0.630865 1.04491 13.1825 0.5
0.0612845 -1.99219 14.178 0.1
1.66388 0.860457 15.4248 0.5
1.41968 0.52327 14.5383 0.1
-0.136526 1.39918 14.5692 0.1
0.630933 0.097428 13.1849 0.1
0.615742 0.775811 14.5617 0.1
-0.499422 -1.79247 14.574 0.1
0.0566592 0.270803 14.3838 0.1
1.09573 -0.0536693 14.5373 0.1
-1.14173 -1.1296 15.8411 0.1
1.21299 -1.34293 12.9022 0.5
1.55916 0.865537 14.3132 0.1
-1.26488 1.23864 13.6111 0.1
-1.10487 -1.61024 14.4521 0.1
0.702906 1.74491 14.5649 0.1
-1.02901 1.42043 14.5411 0.1
0.259632 -0.360564 14.0853 0.1
-1.23329 0.132419 14.0951 0.1
1.80753 -0.796883 12.8661 0.1
0.993336 -0.999296 13.7925 0.1
1.24587 -0.643198 14.2828 0.1
-1.60619 0.814704 14.5211 0.1
-1.70193 -0.275233 12.8036 0.5
-1.04287 0.555012 15.6743 0.1
-0.64677 1.74115 14.2625 0.1
-1.0582 -1.19538 14.5738 0.1
-1.66927 0.658512 13.2247 0.15
-0.431161 1.47734 13.8486 0.1
-0.203505 -0.310839 14.4296 0.1
-0.540056 -0.719451 14.2841 0.1
0.368793 -1.69441 14.4549 0.1
-0.0818681 0.0429056 14.4375 0.1
-0.174221 -0.124908 13.9181 0.15
1.16328 -0.74605 13.817 0.1
-1.18001 -0.388278 13.9178 0.1
1.24422 -0.349484 14.1038 0.1
-0.851629 -1.32284 13.5744 0.1
-0.0464871 -1.30921 13.1798 0.1
-0.675424 0.145144 14.1867 0.1
-0.163709 0.541916 13.4771 0.1
0.424647 1.03522 16.5761 0.15
0.782538 0.113692 14.5728 0.1
-0.42502 0.6864 16.5509 0.1
1.4522 -0.893745 14.5771 0.1
-1.265 -0.836346 14.5745 0.1
0.984674 1.41796 14.531 0.1
0.390026 -0.83805 14.5725 0.5
-1.81452 -0.599313 14.1293 0.1
0.727611 0.95418 13.6282 0.1
-0.344581 0.630487 14.4504 0.1
-0.28817 0.730258 15.0524 0.1
-0.628693 1.56466 16.647 0.1
-0.18219 1.93905 15.6318 0.1
0.130437 0.251102 16.6178 0.1
-1.62334 0.454288 15.9309 0.5
-0.695929 -0.481826 16.2096 0.1
-0.918646 0.322097 14.733 0.5
-1.51968 -1.25751 16.5867 0.1
1.46392 0.122485 15.9328 0.1
-1.30521 -0.671976 16.4492 0.1
0.17531 -1.57294 16.6313 0.1
-0.00690113 0.0127223 16.6325 0.1
1.14912 1.3312 16.6297 0.1
0.403063 -1.71596 15.3571 0.1
1.73951 -0.0834859 14.9547 0.1
0.418231 1.20032 15.5271 0.1
0.0555612 1.81748 15.9186 0.1
-0.0892563 -0.130801 15.0777 0.1
0.219681 0.17859 15.6976 0.1
-1.12756 1.05421 15.152 0.1
-0.579469 0.864419 16.6255 0.1
-0.484854 -0.947986 14.8444 0.1
0.261195 1.9098 16.3935 0.1
-0.41204 -1.15271 16.0652 0.1
-1.78165 -0.269988 15.1895 0.1
-1.26391 1.41021 16.4443 0.1
-0.272139 -1.8483 16.3444 0.1
-1.53514 -1.0854 15.5004 0.1
1.74479 0.663503 16.238 0.1
0.425992 -0.359498 16.6272 0.1
1.19512 -1.58947 14.6483 0.1
0.84131 -0.104153 16.3955 0.1
1.07268 0.560931 16.2298 0.5
-0.404465 -1.84911 16.591 0.1
-0.358797 1.69785 15.6949 0.1
0.466259 0.409912 16.0203 0.1
0.857367 1.75905 15.9469 0.1
-1.96704 -0.0599772 14.6102 0.5
1.46041 1.1276 16.3526 0.15
-1.75759 0.118605 16.526 0.1
-1.19943 1.11613 15.6122 0.15
-0.950059 0.353974 15.4258 0.1
0.0504518 -0.0557949 16.2931 0.1
0.268253 0.536304 16.3548 0.1
0.651341 -0.919609 15.872 0.1
0.674391 -1.50375 14.7239 0.1
0.78133 -0.19367 15.9006 0.1
-1.00607 -0.978836 15.4237 0.1
-0.829369 0.799716 16.6589 0.1
-0.0971384 -0.60503 15.4329 0.1
0.372545 1.36108 16.5045 0.1
-0.0518691 0.236334 15.3008 0.1
-0.129107 -1.90121 14.8343 0.1
-0.313418 0.379508 16.3542 0.1
-0.67697 -1.83934 14.8249 0.1
-1.53766 0.623315 14.7397 0.1
1.08624 0.434 14.8427 0.1
-1.22689 -0.343974 16.2764 0.1
0.0388866 1.56775 16.6633 0.1
1.35007 -1.35928 15.2644 0.5
-0.112125 -0.490871 16.6628 0.1
0.98815 -0.171276 16.1026 0.1
1.98845 -0.16211 16.6394 0.1
-0.17785 -1.12507 16.4845 0.1
0.576004 0.906048 15.7854 0.1
1.46123 -1.07167 16.6461 0.5
-1.146 -0.866004 14.9915 0.15
0.0658576 -1.13067 15.7091 0.1
-0.82781 -0.997944 16.6346 0.5
-0.792015 0.596997 16.6472 0.1
-1.72258 0.562899 16.6542 0.1
0.621233 1.05932 16.1585 0.1
-0.0798247 -1.61295 16.0788 0.1
0.709119 -1.84215 16.5048 0.5
0.097456 1.94277 15.0863 0.1
-1.96158 -0.285404 16.5797 0.1
0.903301 1.77747 16.5531 0.1
0.853351 -1.73447 15.8859 0.1
-0.956438 1.14342 16.1867 0.1
1.02324 1.64867 15.2004 0.5
-0.0672309 -1.94926 16.5016 0.15
0.129967 0.357489 15.4397 0.1
-0.96098 0.803482 16.3296 0.1
-1.24195 -1.49578 15.2487 0.1
-0.211289 0.860316 15.7139 0.5
1.47603 -0.440563 16.6209 0.1
0.4167 -0.520296 16.2542 0.1
-0.0973263 0.236185 16.1357 0.1
0.369646 0.643279 14.6087 0.1
-0.69613 0.13856 15.6278 0.1
-1.4348 1.36153 16.0448 0.15
1.16172 1.06535 15.0318 0.1
-0.375949 1.41701 16.0457 0.1
-0.646819 0.90874 16.337 0.1
1.00503 -0.422501 15.1491 0.1
0.700607 -0.903954 16.6474 0.1
1.25836 1.33256 16.0992 0.1
-0.6485 0.663248 16.3718 0.1
0.2324 1.95249 16.1768 0.1
1.40056 -0.800216 15.9463 0.1
-1.50887 0.342679 16.5655 0.1
-1.56889 -0.390134 16.4463 0.1
-1.54859 0.844418 15.3187 0.1
0.886023 -0.603999 16.509 0.1
-1.66027 -0.169844 16.546 0.1
1.66739 -0.111845 16.5225 0.1
0.0032717 -1.01254 15.8921 0.1
1.80404 0.549269 16.5194 0.1
-1.04806 1.27782 16.5548 0.1
-0.71494 -0.00230431 16.6365 0.5
-0.716442 -1.24836 14.686 0.1
0.266001 -1.32836 16.642 0.1
-0.540147 1.7411 14.8993 0.5
-0.512729 -1.43586 15.5711 0.1
0.0425194 -1.37728 15.7105 0.1
-0.440856 -1.45999 16.6054 0.1
-0.0708606 1.04588 16.6465 0.1
-0.441634 1.46336 16.3569 0.1
-0.253555 -1.50519 16.4026 0.1
1.16853 -0.458125 15.572 0.15
-1.12556 -1.29165 15.0949 0.1
-0.852887 1.53213 15.644 0.15
-0.565332 -1.54207 15.398 0.1
-0.450424 1.72042 16.6632 0.1
-0.979932 -1.71043 15.3865 0.1
1.27403 0.667409 14.9747 0.1
